LAMMPS data file Created by LigParGen - (Written by Leela S. Dodda)

      15 atoms
      15 bonds
      21 angles
      24 dihedrals
       6 impropers
 
      15 atom types
      15 bond types
      21 angle types
      24 dihedral types
       6 improper types
 
   -3.916140    46.083860 xlo xhi
    0.578220    50.578220 ylo yhi
   -3.054940    46.945060 zlo zhi

Masses

       1     14.007  
       2     12.011  
       3     14.007  
       4     12.011  
       5     14.007  
       6     14.007  
       7     12.011  
       8     14.007  
       9     14.007  
      10      1.008  
      11      1.008  
      12      1.008  
      13      1.008  
      14      1.008  
      15      1.008  

Pair Coeffs 

       1      0.170  3.2500000 
       2      0.070  3.5500000 
       3      0.170  3.2500000 
       4      0.070  3.5500000 
       5      0.170  3.2500000 
       6      0.170  3.2500000 
       7      0.070  3.5500000 
       8      0.170  3.2500000 
       9      0.170  3.2500000 
      10      0.000  0.0000000 
      11      0.000  0.0000000 
      12      0.000  0.0000000 
      13      0.000  0.0000000 
      14      0.000  0.0000000 
      15      0.000  0.0000000 

Bond Coeffs 

       1   427.0000     1.3810 
       2   502.0000     1.3240 
       3   502.0000     1.3240 
       4   427.0000     1.3810 
       5   502.0000     1.3240 
       6   502.0000     1.3240 
       7   427.0000     1.3810 
       8   502.0000     1.3240 
       9   434.0000     1.0100 
      10   434.0000     1.0100 
      11   434.0000     1.0100 
      12   434.0000     1.0100 
      13   434.0000     1.0100 
      14   434.0000     1.0100 
      15   502.0000     1.3240 

Angle Coeffs 

       1     70.000    123.300
       2     70.000    118.600
       3     70.000    123.300
       4     70.000    129.100
       5     70.000    118.600
       6     70.000    123.300
       7     70.000    123.300
       8     35.000    118.000
       9     35.000    118.000
      10     35.000    118.000
      11     35.000    118.000
      12     35.000    118.000
      13     35.000    118.000
      14     70.000    123.300
      15     70.000    118.600
      16     70.000    123.300
      17     35.000    120.000
      18     70.000    129.100
      19     70.000    129.100
      20     35.000    120.000
      21     35.000    120.000

Dihedral Coeffs  

       1      0.000      7.250      0.000      0.000 
       2      0.000      7.250      0.000      0.000 
       3      0.000      7.250      0.000      0.000 
       4      0.000      7.250      0.000      0.000 
       5      0.000      7.250      0.000      0.000 
       6      0.000      7.250      0.000      0.000 
       7      0.000      7.250      0.000      0.000 
       8      0.000      7.250      0.000      0.000 
       9      0.000      7.250      0.000      0.000 
      10      0.000      7.250      0.000      0.000 
      11      0.000      7.250      0.000      0.000 
      12      0.000      7.250      0.000      0.000 
      13      0.000      7.250      0.000      0.000 
      14      0.000      7.250      0.000      0.000 
      15      0.000      7.250      0.000      0.000 
      16      0.000      7.250      0.000      0.000 
      17      0.000      7.250      0.000      0.000 
      18      0.000      7.250      0.000      0.000 
      19      0.000      7.250      0.000      0.000 
      20      0.000      7.250      0.000      0.000 
      21      0.000      7.250      0.000      0.000 
      22      0.000      7.250      0.000      0.000 
      23      0.000      7.250      0.000      0.000 
      24      0.000      7.250      0.000      0.000 

Improper Coeffs 

       1      2.500      -1       2 
       2      2.500      -1       2 
       3      2.500      -1       2 
       4      2.500      -1       2 
       5      2.500      -1       2 
       6      2.500      -1       2 

Atoms 

     1      1      1 -0.87500000    1.000  1.00000  0.00000
     2      1      2 0.77720000   -0.383  1.00000  0.00000
     3      1      3 -0.80050000   -0.990  1.00000  1.17465
     4      1      4 0.78150000   -2.311  0.99848  1.11580
     5      1      5 -0.88620000   -2.997  0.99996  2.31497
     6      1      6 -0.79110000   -3.023  0.99704  0.00135
     7      1      7 0.78480000   -2.309  0.94351 -1.11077
     8      1      8 -0.89630000   -2.996  0.93754 -2.30916
     9      1      9 -0.79870000   -0.990  0.99852 -1.17444
    10      1     10 0.44690000    1.340  0.60950  0.86863
    11      1     11 0.44690000    1.339  0.57822 -0.85428
    12      1     12 0.45150000   -2.415  1.36579  3.05579
    13      1     13 0.45150000   -3.916  1.40137  2.19856
    14      1     14 0.45370000   -3.908  1.35855 -2.19880
    15      1     15 0.45370000   -2.408  1.28195 -3.05494

Bonds 

     1      1      2      1
     2      2      3      2
     3      3      4      3
     4      4      5      4
     5      5      6      4
     6      6      7      6
     7      7      8      7
     8      8      9      2
     9      9     10      1
    10     10     11      1
    11     11     12      5
    12     12     13      5
    13     13     14      8
    14     14     15      8
    15     15      9      7

Angles 

     1      1      1      2      3
     2      2      2      3      4
     3      3      3      4      5
     4      4      3      4      6
     5      5      4      6      7
     6      6      6      7      8
     7      7      1      2      9
     8      8      2      1     10
     9      9      2      1     11
    10     10      4      5     12
    11     11      4      5     13
    12     12      7      8     14
    13     13      7      8     15
    14     14      5      4      6
    15     15      2      9      7
    16     16      8      7      9
    17     17     12      5     13
    18     18      3      2      9
    19     19      6      7      9
    20     20     10      1     11
    21     21     14      8     15

Dihedrals

     1      1      4      3      2      1 
     2      2      5      4      3      2 
     3      3      7      6      4      3 
     4      4      8      7      6      4 
     5      5     10      1      2      3 
     6      6     12      5      4      3 
     7      7     14      8      7      6 
     8      8     15      8      7      6 
     9      9     11      1      2      3 
    10     10      6      4      3      2 
    11     11     14      8      7      9 
    12     12      9      2      3      4 
    13     13     12      5      4      6 
    14     14     15      8      7      9 
    15     15      7      9      2      1 
    16     16     10      1      2      9 
    17     17      8      7      9      2 
    18     18     13      5      4      6 
    19     19      6      7      9      2 
    20     20      9      7      6      4 
    21     21      7      9      2      3 
    22     22     11      1      2      9 
    23     23      7      6      4      5 
    24     24     13      5      4      3 

Impropers

     1      1      4      3      5      6 
     2      2      2      9      3      1 
     3      3      1      2     11     10 
     4      4      5     12      4     13 
     5      5      8     14      7     15 
     6      6      7      9      6      8 
