 DBCSR| CPU Multiplication driver                                           BLAS (U)
 DBCSR| Multrec recursion limit                                              512 (U)
 DBCSR| Multiplication stack size                                           1000 (D)
 DBCSR| Maximum elements for images                                    UNLIMITED (U)
 DBCSR| Multiplicative factor virtual images                                   1 (U)
 DBCSR| Use multiplication densification                                       T (D)
 DBCSR| Multiplication size stacks                                             3 (U)
 DBCSR| Use memory pool for CPU allocation                                     F (U)
 DBCSR| OMP: Current number of threads                                         8
 DBCSR| OMP: Max number of threads                                             8
 DBCSR| Split modifier for TAS multiplication algorithm                  1.0E+00 (U)


  **** **** ******  **  PROGRAM STARTED AT               2026-02-16 22:01:50.974
 ***** ** ***  *** **   PROGRAM STARTED ON                 MacBook-Air-950.local
 **    ****   ******    PROGRAM STARTED BY                       mackenziehenley
 ***** **    ** ** **   PROGRAM PROCESS ID                                 70809
  **** **  *******  **  PROGRAM STARTED IN /Users/mackenziehenley/cp2k/D2O_ice/C
                                           P2K

 CP2K| version string:                                       CP2K version 2025.1
 CP2K| source code revision number:                                             
 CP2K| cp2kflags: omp libint fftw3 libxc no_statm_access                        
 CP2K| is freely available from                            https://www.cp2k.org/
 CP2K| Program compiled at                                   2025-01-01 12:26:53
 CP2K| Program compiled on                                                      
 CP2K| Program compiled for                                                arm64
 CP2K| Data directory path      /opt/homebrew/Cellar/cp2k/2025.1/share/cp2k/data
 CP2K| Input file name                                               ice_d20.inp

 GLOBAL| Force Environment number                                              1
 GLOBAL| Basis set file name                                           BASIS_SET
 GLOBAL| Potential file name                                           POTENTIAL
 GLOBAL| MM Potential file name                                     MM_POTENTIAL
 GLOBAL| Coordinate file name                                        ice_d20.xyz
 GLOBAL| Method name                                                        CP2K
 GLOBAL| Project name                                               Ice_Ih_Small
 GLOBAL| Run type                                                        GEO_OPT
 GLOBAL| FFT library                                                       FFTW3
 GLOBAL| Diagonalization library                                       ScaLAPACK
 GLOBAL| DGEMM library                                                      BLAS
 GLOBAL| Orthonormality check for eigenvectors                          DISABLED
 GLOBAL| Matrix multiplication library                                 ScaLAPACK
 GLOBAL| All-to-all communication in single precision                          F
 GLOBAL| FFTs using library dependent lengths                                  F
 GLOBAL| Grid backend                                                       AUTO
 GLOBAL| Global print level                                                  LOW
 GLOBAL| MPI I/O enabled                                                       T
 GLOBAL| Total number of message passing processes                             1
 GLOBAL| Number of threads for this process                                    8
 GLOBAL| This output is from process                                           0
 GLOBAL| OpenMP stack size per thread (OMP_STACKSIZE)                    default
 GLOBAL| CPU model name                                                  UNKNOWN
 GLOBAL| CPUID                                                              2000

 MEMORY| system memory details [Kb]
 MEMORY|                        rank 0           min           max       average
 MEMORY| MemTotal                    0             0             0             0
 MEMORY| MemFree                     0             0             0             0
 MEMORY| Buffers                     0             0             0             0
 MEMORY| Cached                      0             0             0             0
 MEMORY| Slab                        0             0             0             0
 MEMORY| SReclaimable                0             0             0             0
 MEMORY| MemLikelyFree               0             0             0             0


 GENERATE|  Preliminary Number of Bonds generated:                             0
 GENERATE|  Achieved consistency in connectivity generation.


              #####   #####        # #     # ######  ######   #####  
             #     # #     #      #  ##    # #     # #     # #     # 
             #     # #           #   # #   # #     # #     # #     # 
             #     #  #####     #    #  #  # #     # #     # #     # 
             #   # #       #   #     #   # # #     # #     # #     # 
             #    #  #     #  #      #    ## #     # #     # #     # 
              #### #  #####  #       #     # ######  ######   #####  
                                                                     
                              T. Laino and J. Hutter                 
                                                                     
                                   2008 - 2015                       


 SEMIEMPIRICAL|                             Coulomb Integral cutoff/taper values
 SEMIEMPIRICAL| Cutoff [a.u.]                                             22.677
 SEMIEMPIRICAL| Taper  [a.u.]                                             22.677
 SEMIEMPIRICAL| Range  [a.u.]                                              0.000


 SEMIEMPIRICAL|                     Exchange Integral cutoff/taper was redefined
 SEMIEMPIRICAL| Default value [a.u.]                                      22.677
 SEMIEMPIRICAL| New value [a.u.]                                           6.950


 SEMIEMPIRICAL|                            Exchange Integral cutoff/taper values
 SEMIEMPIRICAL| Cutoff [a.u.]                                              6.950
 SEMIEMPIRICAL| Taper  [a.u.]                                              6.950
 SEMIEMPIRICAL| Range  [a.u.]                                              0.000



 TOTAL NUMBERS AND MAXIMUM NUMBERS

  Total number of            - Atomic kinds:                                   2
                             - Atoms:                                         96
                             - Shell sets:                                   128
                             - Shells:                                       128
                             - Primitive Cartesian functions:                768
                             - Cartesian basis functions:                    192
                             - Spherical basis functions:                    192

  Maximum angular momentum of the orbital basis functions:                     1


 SCF PARAMETERS         Density guess:                                    ATOMIC
                        --------------------------------------------------------
                        max_scf:                                             200
                        max_scf_history:                                       0
                        max_diis:                                              4
                        --------------------------------------------------------
                        eps_scf:                                        1.00E-04
                        eps_scf_history:                                0.00E+00
                        eps_diis:                                       1.00E-01
                        eps_eigval:                                     1.00E-05
                        --------------------------------------------------------
                        level_shift [a.u.]:                             0.000000
                        --------------------------------------------------------
                        No outer SCF

 BFGS| Use rational function optimization for step estimation:                NO
 BFGS| Use model Hessian for initial guess:                                  YES
 BFGS| Restart Hessian:                                                       NO
 BFGS| Trust radius:                                                       0.472

 *******************************************************************************
 ***                     STARTING GEOMETRY OPTIMIZATION                      ***
 ***                                   BFGS                                  ***
 *******************************************************************************

 Number of electrons:                                                        256
 Number of occupied orbitals:                                                128
 Number of molecular orbitals:                                               128

 Number of orbital functions:                                                192
 Number of independent orbital functions:                                    192

 Extrapolation method: initial_guess


 SCF WAVEFUNCTION OPTIMIZATION

  ----------------------------------- OT ---------------------------------------
  Minimizer      : DIIS                : direct inversion
                                         in the iterative subspace
                                         using   7 DIIS vectors
                                         safer DIIS on
  Preconditioner : FULL_SINGLE_INVERSE : inversion of 
                                         H + eS - 2*(Sc)(c^T*H*c+const)(Sc)^T
  Precond_solver : DEFAULT
  stepsize       :    0.08000000                  energy_gap     :    0.08000000
  eps_taylor     :   0.10000E-15                  max_taylor     :             4
  ----------------------------------- OT ---------------------------------------

  Step     Update method      Time    Convergence         Total energy    Change
  ------------------------------------------------------------------------------
     1 OT DIIS     0.80E-01    1.1     0.12138477      -308.1354209613 -3.08E+02
     2 OT DIIS     0.80E-01    0.2     0.17687130      -313.9138823126 -5.78E+00
     3 OT DIIS     0.80E-01    0.2     0.07697772      -326.0641761238 -1.22E+01
     4 OT DIIS     0.80E-01    0.2     0.07323700      -331.8672698225 -5.80E+00
     5 OT DIIS     0.80E-01    0.2     0.06405235      -336.9243663727 -5.06E+00
     6 OT DIIS     0.80E-01    0.2     0.05691922      -343.0958316858 -6.17E+00
     7 OT DIIS     0.80E-01    0.2     0.04934727      -346.8289258534 -3.73E+00
     8 OT DIIS     0.80E-01    0.2     0.04579551      -350.4535754861 -3.62E+00
     9 OT DIIS     0.80E-01    0.2     0.03835373      -355.0120768734 -4.56E+00
    10 OT DIIS     0.80E-01    0.3     0.03502821      -358.7852984850 -3.77E+00
    11 OT DIIS     0.80E-01    0.2     0.02885013      -362.3014651332 -3.52E+00
    12 OT DIIS     0.80E-01    0.2     0.02319457      -364.8370665809 -2.54E+00
    13 OT DIIS     0.80E-01    0.3     0.02000025      -366.5010541063 -1.66E+00
    14 OT DIIS     0.80E-01    0.2     0.01667756      -367.8283110726 -1.33E+00
    15 OT DIIS     0.80E-01    0.3     0.01554941      -368.5945158001 -7.66E-01
    16 OT DIIS     0.80E-01    0.2     0.01293465      -369.4037146347 -8.09E-01
    17 OT DIIS     0.80E-01    0.2     0.01314214      -369.8643098649 -4.61E-01
    18 OT DIIS     0.80E-01    0.2     0.01022313      -370.3952108145 -5.31E-01
    19 OT DIIS     0.80E-01    0.2     0.00983240      -370.6892192813 -2.94E-01
    20 OT DIIS     0.80E-01    0.3     0.00896614      -370.9589232832 -2.70E-01
    21 OT DIIS     0.80E-01    0.2     0.00818973      -371.2098147439 -2.51E-01
    22 OT DIIS     0.80E-01    0.2     0.00730943      -371.4909901767 -2.81E-01
    23 OT DIIS     0.80E-01    0.2     0.00551197      -371.7921054654 -3.01E-01
    24 OT DIIS     0.80E-01    0.2     0.00482811      -371.8644301686 -7.23E-02
    25 OT DIIS     0.80E-01    0.2     0.00400118      -371.9735710617 -1.09E-01
    26 OT DIIS     0.80E-01    0.2     0.00407445      -371.9613875506  1.22E-02
    27 OT DIIS     0.80E-01    0.2     0.00259444      -372.0305105101 -6.91E-02
    28 OT DIIS     0.80E-01    0.2     0.00214923      -372.0570040254 -2.65E-02
    29 OT DIIS     0.80E-01    0.2     0.00188754      -372.0764056616 -1.94E-02
    30 OT DIIS     0.80E-01    0.3     0.00157280      -372.0998145135 -2.34E-02
    31 OT DIIS     0.80E-01    0.2     0.00135976      -372.1140277005 -1.42E-02
    32 OT DIIS     0.80E-01    0.2     0.00124652      -372.1249234980 -1.09E-02
    33 OT DIIS     0.80E-01    0.2     0.00114106      -372.1335484573 -8.62E-03
    34 OT DIIS     0.80E-01    0.2     0.00100176      -372.1457119665 -1.22E-02
    35 OT DIIS     0.80E-01    0.2     0.00090702      -372.1545950775 -8.88E-03
    36 OT DIIS     0.80E-01    0.2     0.00082943      -372.1608596308 -6.26E-03
    37 OT DIIS     0.80E-01    0.2     0.00074949      -372.1670015812 -6.14E-03
    38 OT DIIS     0.80E-01    0.2     0.00067150      -372.1717237028 -4.72E-03
    39 OT DIIS     0.80E-01    0.2     0.00060800      -372.1763344859 -4.61E-03
    40 OT DIIS     0.80E-01    0.3     0.00056067      -372.1797607869 -3.43E-03
    41 OT DIIS     0.80E-01    0.2     0.00052661      -372.1818080237 -2.05E-03
    42 OT DIIS     0.80E-01    0.2     0.00048728      -372.1842636408 -2.46E-03
    43 OT DIIS     0.80E-01    0.2     0.00044964      -372.1870115356 -2.75E-03
    44 OT DIIS     0.80E-01    0.2     0.00043099      -372.1883692357 -1.36E-03
    45 OT DIIS     0.80E-01    0.2     0.00040822      -372.1899158630 -1.55E-03
    46 OT DIIS     0.80E-01    0.2     0.00038472      -372.1912426881 -1.33E-03
    47 OT DIIS     0.80E-01    0.2     0.00036320      -372.1927500586 -1.51E-03
    48 OT DIIS     0.80E-01    0.2     0.00034729      -372.1939902909 -1.24E-03
    49 OT DIIS     0.80E-01    0.2     0.00033457      -372.1949857845 -9.95E-04
    50 OT DIIS     0.80E-01    0.2     0.00031879      -372.1960318818 -1.05E-03
    51 OT DIIS     0.80E-01    0.2     0.00030391      -372.1971932631 -1.16E-03
    52 OT DIIS     0.80E-01    0.3     0.00029569      -372.1980030635 -8.10E-04
    53 OT DIIS     0.80E-01    0.2     0.00028453      -372.1989347014 -9.32E-04
    54 OT DIIS     0.80E-01    0.2     0.00027227      -372.1997578251 -8.23E-04
    55 OT DIIS     0.80E-01    0.2     0.00026021      -372.2006075129 -8.50E-04
    56 OT DIIS     0.80E-01    0.2     0.00025105      -372.2013129399 -7.05E-04
    57 OT DIIS     0.80E-01    0.2     0.00024391      -372.2019398078 -6.27E-04
    58 OT DIIS     0.80E-01    0.2     0.00023530      -372.2025490984 -6.09E-04
    59 OT DIIS     0.80E-01    0.2     0.00022593      -372.2032619827 -7.13E-04
    60 OT DIIS     0.80E-01    0.2     0.00022073      -372.2037513158 -4.89E-04
    61 OT DIIS     0.80E-01    0.2     0.00021433      -372.2042529688 -5.02E-04
    62 OT DIIS     0.80E-01    0.2     0.00020788      -372.2047102614 -4.57E-04
    63 OT DIIS     0.80E-01    0.3     0.00020130      -372.2051742569 -4.64E-04
    64 OT DIIS     0.80E-01    0.2     0.00019562      -372.2055808267 -4.07E-04
    65 OT DIIS     0.80E-01    0.2     0.00019142      -372.2059294762 -3.49E-04
    66 OT DIIS     0.80E-01    0.2     0.00018713      -372.2062333300 -3.04E-04
    67 OT DIIS     0.80E-01    0.2     0.00018226      -372.2066024637 -3.69E-04
    68 OT DIIS     0.80E-01    0.2     0.00017918      -372.2069069341 -3.04E-04
    69 OT DIIS     0.80E-01    0.2     0.00017583      -372.2071805235 -2.74E-04
    70 OT DIIS     0.80E-01    0.2     0.00017226      -372.2074425524 -2.62E-04
    71 OT DIIS     0.80E-01    0.2     0.00016880      -372.2077117412 -2.69E-04
    72 OT DIIS     0.80E-01    0.2     0.00016548      -372.2079720287 -2.60E-04
    73 OT DIIS     0.80E-01    0.3     0.00016278      -372.2082185514 -2.47E-04
    74 OT DIIS     0.80E-01    0.2     0.00016016      -372.2084319635 -2.13E-04
    75 OT DIIS     0.80E-01    0.2     0.00015697      -372.2086951007 -2.63E-04
    76 OT DIIS     0.80E-01    0.2     0.00015468      -372.2089214405 -2.26E-04
    77 OT DIIS     0.80E-01    0.3     0.00015245      -372.2091399493 -2.19E-04
    78 OT DIIS     0.80E-01    0.2     0.00014982      -372.2093543598 -2.14E-04
    79 OT DIIS     0.80E-01    0.2     0.00014707      -372.2095856754 -2.31E-04
    80 OT DIIS     0.80E-01    0.2     0.00014433      -372.2098041113 -2.18E-04
    81 OT DIIS     0.80E-01    0.2     0.00014208      -372.2100038113 -2.00E-04
    82 OT DIIS     0.80E-01    0.2     0.00014000      -372.2101763001 -1.72E-04
    83 OT DIIS     0.80E-01    0.3     0.00013737      -372.2103935195 -2.17E-04
    84 OT DIIS     0.80E-01    0.2     0.00013536      -372.2105797084 -1.86E-04
    85 OT DIIS     0.80E-01    0.2     0.00013349      -372.2107477323 -1.68E-04
    86 OT DIIS     0.80E-01    0.2     0.00013150      -372.2109016465 -1.54E-04
    87 OT DIIS     0.80E-01    0.2     0.00012940      -372.2110659562 -1.64E-04
    88 OT DIIS     0.80E-01    0.2     0.00012743      -372.2112168573 -1.51E-04
    89 OT DIIS     0.80E-01    0.2     0.00012577      -372.2113524356 -1.36E-04
    90 OT DIIS     0.80E-01    0.2     0.00012429      -372.2114636594 -1.11E-04
    91 OT DIIS     0.80E-01    0.2     0.00012257      -372.2115987442 -1.35E-04
    92 OT DIIS     0.80E-01    0.2     0.00012121      -372.2117161774 -1.17E-04
    93 OT DIIS     0.80E-01    0.2     0.00011993      -372.2118319415 -1.16E-04
    94 OT DIIS     0.80E-01    0.3     0.00011868      -372.2119323431 -1.00E-04
    95 OT DIIS     0.80E-01    0.2     0.00011721      -372.2120444312 -1.12E-04
    96 OT DIIS     0.80E-01    0.2     0.00011590      -372.2121493818 -1.05E-04
    97 OT DIIS     0.80E-01    0.2     0.00011475      -372.2122497789 -1.00E-04
    98 OT DIIS     0.80E-01    0.2     0.00011368      -372.2123366333 -8.69E-05
    99 OT DIIS     0.80E-01    0.2     0.00011238      -372.2124486670 -1.12E-04
   100 OT DIIS     0.80E-01    0.2     0.00011130      -372.2125450314 -9.64E-05
   101 OT DIIS     0.80E-01    0.2     0.00011025      -372.2126452213 -1.00E-04
   102 OT DIIS     0.80E-01    0.2     0.00010928      -372.2127354627 -9.02E-05
   103 OT DIIS     0.80E-01    0.2     0.00010797      -372.2128406338 -1.05E-04
   104 OT DIIS     0.80E-01    0.3     0.00010679      -372.2129419389 -1.01E-04
   105 OT DIIS     0.80E-01    0.2     0.00010568      -372.2130391187 -9.72E-05
   106 OT DIIS     0.80E-01    0.2     0.00010468      -372.2131209361 -8.18E-05
   107 OT DIIS     0.80E-01    0.2     0.00010347      -372.2132253666 -1.04E-04
   108 OT DIIS     0.80E-01    0.2     0.00010242      -372.2133169357 -9.16E-05
   109 OT DIIS     0.80E-01    0.2     0.00010141      -372.2134096032 -9.27E-05
   110 OT DIIS     0.80E-01    0.2     0.00010051      -372.2134871373 -7.75E-05
   111 OT DIIS     0.80E-01    0.2     0.00009935      -372.2135750935 -8.80E-05

  *** SCF run converged in   111 steps ***


  Core-core repulsion energy [eV]:                        1646494.21880209608935
  Core Hamiltonian energy [eV]:                            -16712.68446858048264
  Two-electron integral energy [eV]:                     -3279819.96160401450470
  Electronic energy [eV]:                                -1656622.66527058766223

  Total energy [eV]:                                       -10128.44646849149467

  Atomic reference energy [eV]:                             10135.12221567713459
  Heat of formation [kcal/mol]:                               153.94639948528192

 ENERGY| Total FORCE_EVAL ( QS ) energy [hartree]           -372.213656309992075

 OPT| **************************************************************************
 OPT| Step number                                                              0
 OPT| Optimization method                                                   BFGS
 OPT| Total energy [hartree]                                     -372.2136563100
 OPT| Used time [s]                                                       29.606
 OPT| **************************************************************************

 --------------------------
 OPTIMIZATION STEP:      1
 --------------------------

 Number of electrons:                                                        256
 Number of occupied orbitals:                                                128
 Number of molecular orbitals:                                               128

 Number of orbital functions:                                                192
 Number of independent orbital functions:                                    192

 Extrapolation method: ASPC


 SCF WAVEFUNCTION OPTIMIZATION

  ----------------------------------- OT ---------------------------------------
  Minimizer      : DIIS                : direct inversion
                                         in the iterative subspace
                                         using   7 DIIS vectors
                                         safer DIIS on
  Preconditioner : FULL_SINGLE_INVERSE : inversion of 
                                         H + eS - 2*(Sc)(c^T*H*c+const)(Sc)^T
  Precond_solver : DEFAULT
  stepsize       :    0.08000000                  energy_gap     :    0.08000000
  eps_taylor     :   0.10000E-15                  max_taylor     :             4
  ----------------------------------- OT ---------------------------------------

  Step     Update method      Time    Convergence         Total energy    Change
  ------------------------------------------------------------------------------
     1 OT DIIS     0.80E-01    1.0     0.00348649      -372.4487007005 -3.72E+02
     2 OT DIIS     0.80E-01    0.2     0.00347417      -372.4671972172 -1.85E-02
     3 OT DIIS     0.80E-01    0.2     0.00277977      -372.4752436768 -8.05E-03
     4 OT DIIS     0.80E-01    0.3     0.00157532      -372.5076510050 -3.24E-02
     5 OT DIIS     0.80E-01    0.3     0.00156532      -372.5146011549 -6.95E-03
     6 OT DIIS     0.80E-01    0.3     0.00090020      -372.5248260794 -1.02E-02
     7 OT DIIS     0.80E-01    0.3     0.00079383      -372.5275063090 -2.68E-03
     8 OT DIIS     0.80E-01    0.3     0.00033541      -372.5285724952 -1.07E-03
     9 OT DIIS     0.80E-01    0.3     0.00026815      -372.5288790796 -3.07E-04
    10 OT DIIS     0.80E-01    0.3     0.00024880      -372.5289722406 -9.32E-05
    11 OT DIIS     0.80E-01    0.3     0.00010704      -372.5290316200 -5.94E-05
    12 OT DIIS     0.80E-01    0.3     0.00009353      -372.5290590850 -2.75E-05

  *** SCF run converged in    12 steps ***


  Core-core repulsion energy [eV]:                        1646335.69776672031730
  Core Hamiltonian energy [eV]:                            -16673.71244111731721
  Two-electron integral energy [eV]:                     -3279598.03310017380863
  Electronic energy [eV]:                                -1656472.72899120417424

  Total energy [eV]:                                       -10137.03122448382237

  Atomic reference energy [eV]:                             10135.12221567713459
  Heat of formation [kcal/mol]:                               -44.02279238606678

 ENERGY| Total FORCE_EVAL ( QS ) energy [hartree]           -372.529070674077957

 OPT| **************************************************************************
 OPT| Step number                                                              1
 OPT| Optimization method                                                   BFGS
 OPT| Total energy [hartree]                                     -372.5290706741
 OPT| Effective energy change [hartree]                            -0.3154143641
 OPT| Predicted energy change [hartree]                            -0.1878090810
 OPT| Scaling factor                                                0.0000000000
 OPT| Step size                                                     0.0704161962
 OPT| Trust radius                                                  0.4724315332
 OPT| Decrease in energy                                                     YES
 OPT| Used time [s]                                                        5.440
 OPT|
 OPT| Maximum step size                                             0.0704161962
 OPT| Convergence limit for maximum step size                       0.0030000000
 OPT| Maximum step size is converged                                          NO
 OPT|
 OPT| RMS step size                                                 0.0331263959
 OPT| Convergence limit for RMS step size                           0.0015000000
 OPT| RMS step size is converged                                              NO
 OPT|
 OPT| Maximum gradient                                              0.0738653933
 OPT| Convergence limit for maximum gradient                        0.0004500000
 OPT| Maximum gradient is converged                                           NO
 OPT|
 OPT| RMS gradient                                                  0.0387408573
 OPT| Convergence limit for RMS gradient                            0.0003000000
 OPT| RMS gradient is converged                                               NO
 OPT| **************************************************************************

 --------------------------
 OPTIMIZATION STEP:      2
 --------------------------

 Number of electrons:                                                        256
 Number of occupied orbitals:                                                128
 Number of molecular orbitals:                                               128

 Number of orbital functions:                                                192
 Number of independent orbital functions:                                    192

 Extrapolation method: ASPC


 SCF WAVEFUNCTION OPTIMIZATION

  ----------------------------------- OT ---------------------------------------
  Minimizer      : DIIS                : direct inversion
                                         in the iterative subspace
                                         using   7 DIIS vectors
                                         safer DIIS on
  Preconditioner : FULL_SINGLE_INVERSE : inversion of 
                                         H + eS - 2*(Sc)(c^T*H*c+const)(Sc)^T
  Precond_solver : DEFAULT
  stepsize       :    0.08000000                  energy_gap     :    0.08000000
  eps_taylor     :   0.10000E-15                  max_taylor     :             4
  ----------------------------------- OT ---------------------------------------

  Step     Update method      Time    Convergence         Total energy    Change
  ------------------------------------------------------------------------------
     1 OT DIIS     0.80E-01    1.0     0.01945385      -372.1217202407 -3.72E+02
     2 OT DIIS     0.80E-01    0.3     0.02861063      -372.3950121548 -2.73E-01
     3 OT DIIS     0.80E-01    0.3     0.01238522      -372.7063860027 -3.11E-01
     4 OT DIIS     0.80E-01    0.2     0.01290787      -373.4010999295 -6.95E-01
     5 OT DIIS     0.80E-01    0.2     0.00779420      -373.4504503758 -4.94E-02
     6 OT DIIS     0.80E-01    0.2     0.00608312      -373.4565368704 -6.09E-03
     7 OT DIIS     0.80E-01    0.2     0.00604579      -373.5081912011 -5.17E-02
     8 OT DIIS     0.80E-01    0.3     0.00178446      -373.5316225057 -2.34E-02
     9 OT DIIS     0.80E-01    0.2     0.00176840      -373.5331679217 -1.55E-03
    10 OT DIIS     0.80E-01    0.2     0.00102385      -373.5358112295 -2.64E-03
    11 OT DIIS     0.80E-01    0.2     0.00063104      -373.5366418647 -8.31E-04
    12 OT DIIS     0.80E-01    0.2     0.00042101      -373.5369372301 -2.95E-04
    13 OT DIIS     0.80E-01    0.2     0.00039871      -373.5371218903 -1.85E-04
    14 OT DIIS     0.80E-01    0.3     0.00038047      -373.5373607136 -2.39E-04
    15 OT DIIS     0.80E-01    0.2     0.00041250      -373.5377074806 -3.47E-04
    16 OT DIIS     0.80E-01    0.2     0.00020327      -373.5380047275 -2.97E-04
    17 OT DIIS     0.80E-01    0.2     0.00008813      -373.5381025931 -9.79E-05

  *** SCF run converged in    17 steps ***


  Core-core repulsion energy [eV]:                        1649923.80483992025256
  Core Hamiltonian energy [eV]:                            -16471.28150971497234
  Two-electron integral energy [eV]:                     -3287234.02404983248562
  Electronic energy [eV]:                                -1660088.29353463114239

  Total energy [eV]:                                       -10164.48869471090075

  Atomic reference energy [eV]:                             10135.12221567713459
  Heat of formation [kcal/mol]:                              -677.20714806760429

 ENERGY| Total FORCE_EVAL ( QS ) energy [hartree]           -373.538121094767121

 OPT| **************************************************************************
 OPT| Step number                                                              2
 OPT| Optimization method                                                   BFGS
 OPT| Total energy [hartree]                                     -373.5381210948
 OPT| Effective energy change [hartree]                            -1.0090504207
 OPT| Predicted energy change [hartree]                            -0.8514438546
 OPT| Scaling factor                                                0.0000000000
 OPT| Step size                                                     0.3336596120
 OPT| Trust radius                                                  0.4724315332
 OPT| Decrease in energy                                                     YES
 OPT| Used time [s]                                                        6.503
 OPT|
 OPT| Maximum step size                                             0.3336596120
 OPT| Convergence limit for maximum step size                       0.0030000000
 OPT| Maximum step size is converged                                          NO
 OPT|
 OPT| RMS step size                                                 0.1616379284
 OPT| Convergence limit for RMS step size                           0.0015000000
 OPT| RMS step size is converged                                              NO
 OPT|
 OPT| Maximum gradient                                              0.0373557021
 OPT| Convergence limit for maximum gradient                        0.0004500000
 OPT| Maximum gradient is converged                                           NO
 OPT|
 OPT| RMS gradient                                                  0.0123986423
 OPT| Convergence limit for RMS gradient                            0.0003000000
 OPT| RMS gradient is converged                                               NO
 OPT| **************************************************************************

 --------------------------
 OPTIMIZATION STEP:      3
 --------------------------

 Number of electrons:                                                        256
 Number of occupied orbitals:                                                128
 Number of molecular orbitals:                                               128

 Number of orbital functions:                                                192
 Number of independent orbital functions:                                    192

 Extrapolation method: ASPC


 SCF WAVEFUNCTION OPTIMIZATION

  ----------------------------------- OT ---------------------------------------
  Minimizer      : DIIS                : direct inversion
                                         in the iterative subspace
                                         using   7 DIIS vectors
                                         safer DIIS on
  Preconditioner : FULL_SINGLE_INVERSE : inversion of 
                                         H + eS - 2*(Sc)(c^T*H*c+const)(Sc)^T
  Precond_solver : DEFAULT
  stepsize       :    0.08000000                  energy_gap     :    0.08000000
  eps_taylor     :   0.10000E-15                  max_taylor     :             4
  ----------------------------------- OT ---------------------------------------

  Step     Update method      Time    Convergence         Total energy    Change
  ------------------------------------------------------------------------------
     1 OT DIIS     0.80E-01    1.0     0.07945642      -367.4644606334 -3.67E+02
     2 OT DIIS     0.80E-01    0.2     0.14718355      -365.8788726903  1.59E+00
     3 OT DIIS     0.80E-01    0.2     0.02678079      -372.2449565789 -6.37E+00
     4 OT DIIS     0.80E-01    0.2     0.04922440      -372.4455990923 -2.01E-01
     5 OT DIIS     0.80E-01    0.2     0.01252979      -373.1507060112 -7.05E-01
     6 OT DIIS     0.80E-01    0.2     0.01335132      -373.3137642279 -1.63E-01
     7 OT DIIS     0.80E-01    0.2     0.00540362      -373.5253479345 -2.12E-01
     8 OT DIIS     0.80E-01    0.3     0.00612859      -373.5533214689 -2.80E-02
     9 OT DIIS     0.80E-01    0.2     0.00223762      -373.5705991452 -1.73E-02
    10 OT DIIS     0.80E-01    0.2     0.00195749      -373.5738018694 -3.20E-03
    11 OT DIIS     0.80E-01    0.2     0.00108665      -373.5757546170 -1.95E-03
    12 OT DIIS     0.80E-01    0.2     0.00148416      -373.5763474584 -5.93E-04
    13 OT DIIS     0.80E-01    0.2     0.00077349      -373.5770861025 -7.39E-04
    14 OT DIIS     0.80E-01    0.2     0.00061359      -373.5775970983 -5.11E-04
    15 OT DIIS     0.80E-01    0.2     0.00044404      -373.5781230739 -5.26E-04
    16 OT DIIS     0.80E-01    0.2     0.00044370      -373.5784455990 -3.23E-04
    17 OT DIIS     0.80E-01    0.2     0.00035374      -373.5787140251 -2.68E-04
    18 OT DIIS     0.80E-01    0.2     0.00027451      -373.5788378861 -1.24E-04
    19 OT DIIS     0.80E-01    0.3     0.00024379      -373.5789166039 -7.87E-05
    20 OT DIIS     0.80E-01    0.2     0.00022277      -373.5789372316 -2.06E-05
    21 OT DIIS     0.80E-01    0.2     0.00018179      -373.5789507089 -1.35E-05
    22 OT DIIS     0.80E-01    0.2     0.00011970      -373.5789658113 -1.51E-05
    23 OT DIIS     0.80E-01    0.2     0.00008730      -373.5789727360 -6.92E-06

  *** SCF run converged in    23 steps ***


  Core-core repulsion energy [eV]:                        1648985.93408073182218
  Core Hamiltonian energy [eV]:                            -16517.42531197697099
  Two-electron integral energy [eV]:                     -3285268.21919322526082
  Electronic energy [eV]:                                -1659151.53490858944133

  Total energy [eV]:                                       -10165.60082785773739

  Atomic reference energy [eV]:                             10135.12221567713459
  Heat of formation [kcal/mol]:                              -702.85354972765356

 ENERGY| Total FORCE_EVAL ( QS ) energy [hartree]           -373.578978887802805

 OPT| **************************************************************************
 OPT| Step number                                                              3
 OPT| Optimization method                                                   BFGS
 OPT| Total energy [hartree]                                     -373.5789788878
 OPT| Effective energy change [hartree]                            -0.0408577930
 OPT| Predicted energy change [hartree]                            -0.0561545974
 OPT| Scaling factor                                                0.0000000000
 OPT| Step size                                                     0.2345528196
 OPT| Trust radius                                                  0.4724315332
 OPT| Decrease in energy                                                     YES
 OPT| Used time [s]                                                        7.781
 OPT|
 OPT| Maximum step size                                             0.2345528196
 OPT| Convergence limit for maximum step size                       0.0030000000
 OPT| Maximum step size is converged                                          NO
 OPT|
 OPT| RMS step size                                                 0.0388768490
 OPT| Convergence limit for RMS step size                           0.0015000000
 OPT| RMS step size is converged                                              NO
 OPT|
 OPT| Maximum gradient                                              0.0237737337
 OPT| Convergence limit for maximum gradient                        0.0004500000
 OPT| Maximum gradient is converged                                           NO
 OPT|
 OPT| RMS gradient                                                  0.0093162966
 OPT| Convergence limit for RMS gradient                            0.0003000000
 OPT| RMS gradient is converged                                               NO
 OPT| **************************************************************************

 --------------------------
 OPTIMIZATION STEP:      4
 --------------------------

 Number of electrons:                                                        256
 Number of occupied orbitals:                                                128
 Number of molecular orbitals:                                               128

 Number of orbital functions:                                                192
 Number of independent orbital functions:                                    192

 Extrapolation method: ASPC


 SCF WAVEFUNCTION OPTIMIZATION

  ----------------------------------- OT ---------------------------------------
  Minimizer      : DIIS                : direct inversion
                                         in the iterative subspace
                                         using   7 DIIS vectors
                                         safer DIIS on
  Preconditioner : FULL_SINGLE_INVERSE : inversion of 
                                         H + eS - 2*(Sc)(c^T*H*c+const)(Sc)^T
  Precond_solver : DEFAULT
  stepsize       :    0.08000000                  energy_gap     :    0.08000000
  eps_taylor     :   0.10000E-15                  max_taylor     :             4
  ----------------------------------- OT ---------------------------------------

  Step     Update method      Time    Convergence         Total energy    Change
  ------------------------------------------------------------------------------
     1 OT DIIS     0.80E-01    1.0     0.06133037      -370.2154623006 -3.70E+02
     2 OT DIIS     0.80E-01    0.2     0.15679919      -363.3526243527  6.86E+00
     3 OT DIIS     0.80E-01    0.2     0.05568300      -371.2203793518 -7.87E+00
     4 OT DIIS     0.80E-01    0.2     0.02642184      -371.9277479907 -7.07E-01
     5 OT DIIS     0.80E-01    0.2     0.02028759      -372.3871629123 -4.59E-01
     6 OT DIIS     0.80E-01    0.2     0.02119528      -372.6254871186 -2.38E-01
     7 OT DIIS     0.80E-01    0.2     0.01720320      -373.2905187373 -6.65E-01
     8 OT DIIS     0.80E-01    0.2     0.01672831      -373.4157795091 -1.25E-01
     9 OT DIIS     0.80E-01    0.3     0.01161526      -373.4989617550 -8.32E-02
    10 OT DIIS     0.80E-01    0.2     0.00557139      -373.5613713546 -6.24E-02
    11 OT DIIS     0.80E-01    0.2     0.00284588      -373.5882360335 -2.69E-02
    12 OT DIIS     0.80E-01    0.2     0.00478461      -373.5935478967 -5.31E-03
    13 OT DIIS     0.80E-01    0.2     0.00232577      -373.6005034046 -6.96E-03
    14 OT DIIS     0.80E-01    0.2     0.00259113      -373.6034354591 -2.93E-03
    15 OT DIIS     0.80E-01    0.2     0.00131630      -373.6053630495 -1.93E-03
    16 OT DIIS     0.80E-01    0.2     0.00072563      -373.6062146572 -8.52E-04
    17 OT DIIS     0.80E-01    0.2     0.00147084      -373.6060152197  1.99E-04
    18 OT DIIS     0.80E-01    0.2     0.00050797      -373.6065466804 -5.31E-04
    19 OT DIIS     0.80E-01    0.2     0.00050129      -373.6067357188 -1.89E-04
    20 OT DIIS     0.80E-01    0.2     0.00036707      -373.6068352706 -9.96E-05
    21 OT DIIS     0.80E-01    0.3     0.00040827      -373.6070762694 -2.41E-04
    22 OT DIIS     0.80E-01    0.2     0.00035273      -373.6071824598 -1.06E-04
    23 OT DIIS     0.80E-01    0.2     0.00035579      -373.6072186101 -3.62E-05
    24 OT DIIS     0.80E-01    0.2     0.00029068      -373.6072472295 -2.86E-05
    25 OT DIIS     0.80E-01    0.2     0.00011935      -373.6073057912 -5.86E-05
    26 OT DIIS     0.80E-01    0.3     0.00025476      -373.6073050277  7.63E-07
    27 OT DIIS     0.80E-01    0.2     0.00012952      -373.6073176677 -1.26E-05
    28 OT DIIS     0.80E-01    0.2     0.00011110      -373.6073212337 -3.57E-06
    29 OT DIIS     0.80E-01    0.2     0.00009853      -373.6073231697 -1.94E-06

  *** SCF run converged in    29 steps ***


  Core-core repulsion energy [eV]:                        1649008.96472386526875
  Core Hamiltonian energy [eV]:                            -16510.52907218302062
  Two-electron integral energy [eV]:                     -3285329.61586814606562
  Electronic energy [eV]:                                -1659175.33700625598431

  Total energy [eV]:                                       -10166.37228239081560

  Atomic reference energy [eV]:                             10135.12221567713459
  Heat of formation [kcal/mol]:                              -720.64371529734433

 ENERGY| Total FORCE_EVAL ( QS ) energy [hartree]           -373.607324393102317

 OPT| **************************************************************************
 OPT| Step number                                                              4
 OPT| Optimization method                                                   BFGS
 OPT| Total energy [hartree]                                     -373.6073243931
 OPT| Effective energy change [hartree]                            -0.0283455053
 OPT| Predicted energy change [hartree]                            -0.0171012585
 OPT| Scaling factor                                                0.0000000000
 OPT| Step size                                                     0.0470902564
 OPT| Trust radius                                                  0.4724315332
 OPT| Decrease in energy                                                     YES
 OPT| Used time [s]                                                        9.369
 OPT|
 OPT| Maximum step size                                             0.0470902564
 OPT| Convergence limit for maximum step size                       0.0030000000
 OPT| Maximum step size is converged                                          NO
 OPT|
 OPT| RMS step size                                                 0.0136236536
 OPT| Convergence limit for RMS step size                           0.0015000000
 OPT| RMS step size is converged                                              NO
 OPT|
 OPT| Maximum gradient                                              0.0157849414
 OPT| Convergence limit for maximum gradient                        0.0004500000
 OPT| Maximum gradient is converged                                           NO
 OPT|
 OPT| RMS gradient                                                  0.0052733292
 OPT| Convergence limit for RMS gradient                            0.0003000000
 OPT| RMS gradient is converged                                               NO
 OPT| **************************************************************************

 --------------------------
 OPTIMIZATION STEP:      5
 --------------------------

 Number of electrons:                                                        256
 Number of occupied orbitals:                                                128
 Number of molecular orbitals:                                               128

 Number of orbital functions:                                                192
 Number of independent orbital functions:                                    192

 Extrapolation method: ASPC


 SCF WAVEFUNCTION OPTIMIZATION

  ----------------------------------- OT ---------------------------------------
  Minimizer      : DIIS                : direct inversion
                                         in the iterative subspace
                                         using   7 DIIS vectors
                                         safer DIIS on
  Preconditioner : FULL_SINGLE_INVERSE : inversion of 
                                         H + eS - 2*(Sc)(c^T*H*c+const)(Sc)^T
  Precond_solver : DEFAULT
  stepsize       :    0.08000000                  energy_gap     :    0.08000000
  eps_taylor     :   0.10000E-15                  max_taylor     :             4
  ----------------------------------- OT ---------------------------------------

  Step     Update method      Time    Convergence         Total energy    Change
  ------------------------------------------------------------------------------
     1 OT DIIS     0.80E-01    1.0     0.02776504      -372.1520509853 -3.72E+02
     2 OT DIIS     0.80E-01    0.3     0.03492498      -372.5704766288 -4.18E-01
     3 OT DIIS     0.80E-01    0.3     0.01219884      -373.0724356751 -5.02E-01
     4 OT DIIS     0.80E-01    0.2     0.00894445      -373.4623588097 -3.90E-01
     5 OT DIIS     0.80E-01    0.2     0.00499994      -373.5083371019 -4.60E-02
     6 OT DIIS     0.80E-01    0.2     0.00419023      -373.5879174420 -7.96E-02
     7 OT DIIS     0.80E-01    0.2     0.00319509      -373.6089357134 -2.10E-02
     8 OT DIIS     0.80E-01    0.2     0.00212955      -373.6161404379 -7.20E-03
     9 OT DIIS     0.80E-01    0.2     0.00098692      -373.6200687802 -3.93E-03
    10 OT DIIS     0.80E-01    0.2     0.00078179      -373.6217100437 -1.64E-03
    11 OT DIIS     0.80E-01    0.2     0.00065635      -373.6223434750 -6.33E-04
    12 OT DIIS     0.80E-01    0.2     0.00059577      -373.6235771293 -1.23E-03
    13 OT DIIS     0.80E-01    0.2     0.00055465      -373.6239279959 -3.51E-04
    14 OT DIIS     0.80E-01    0.2     0.00039902      -373.6249434084 -1.02E-03
    15 OT DIIS     0.80E-01    0.2     0.00024477      -373.6252812309 -3.38E-04
    16 OT DIIS     0.80E-01    0.3     0.00033654      -373.6253097187 -2.85E-05
    17 OT DIIS     0.80E-01    0.2     0.00016596      -373.6254086037 -9.89E-05
    18 OT DIIS     0.80E-01    0.2     0.00012578      -373.6254607816 -5.22E-05
    19 OT DIIS     0.80E-01    0.2     0.00009623      -373.6255005125 -3.97E-05

  *** SCF run converged in    19 steps ***


  Core-core repulsion energy [eV]:                        1649117.68244493263774
  Core Hamiltonian energy [eV]:                            -16509.41223816004640
  Two-electron integral energy [eV]:                     -3285550.27423963090405
  Electronic energy [eV]:                                -1659284.54935797560029

  Total energy [eV]:                                       -10166.86691304277701

  Atomic reference energy [eV]:                             10135.12221567713459
  Heat of formation [kcal/mol]:                              -732.05017000974431

 ENERGY| Total FORCE_EVAL ( QS ) energy [hartree]           -373.625501316018926

 OPT| **************************************************************************
 OPT| Step number                                                              5
 OPT| Optimization method                                                   BFGS
 OPT| Total energy [hartree]                                     -373.6255013160
 OPT| Effective energy change [hartree]                            -0.0181769229
 OPT| Predicted energy change [hartree]                            -0.0152102980
 OPT| Scaling factor                                                0.0000000000
 OPT| Step size                                                     0.0724397585
 OPT| Trust radius                                                  0.4724315332
 OPT| Decrease in energy                                                     YES
 OPT| Used time [s]                                                        6.889
 OPT|
 OPT| Maximum step size                                             0.0724397585
 OPT| Convergence limit for maximum step size                       0.0030000000
 OPT| Maximum step size is converged                                          NO
 OPT|
 OPT| RMS step size                                                 0.0219606818
 OPT| Convergence limit for RMS step size                           0.0015000000
 OPT| RMS step size is converged                                              NO
 OPT|
 OPT| Maximum gradient                                              0.0051602953
 OPT| Convergence limit for maximum gradient                        0.0004500000
 OPT| Maximum gradient is converged                                           NO
 OPT|
 OPT| RMS gradient                                                  0.0011669874
 OPT| Convergence limit for RMS gradient                            0.0003000000
 OPT| RMS gradient is converged                                               NO
 OPT| **************************************************************************

 --------------------------
 OPTIMIZATION STEP:      6
 --------------------------

 Number of electrons:                                                        256
 Number of occupied orbitals:                                                128
 Number of molecular orbitals:                                               128

 Number of orbital functions:                                                192
 Number of independent orbital functions:                                    192

 Extrapolation method: ASPC


 SCF WAVEFUNCTION OPTIMIZATION

  ----------------------------------- OT ---------------------------------------
  Minimizer      : DIIS                : direct inversion
                                         in the iterative subspace
                                         using   7 DIIS vectors
                                         safer DIIS on
  Preconditioner : FULL_SINGLE_INVERSE : inversion of 
                                         H + eS - 2*(Sc)(c^T*H*c+const)(Sc)^T
  Precond_solver : DEFAULT
  stepsize       :    0.08000000                  energy_gap     :    0.08000000
  eps_taylor     :   0.10000E-15                  max_taylor     :             4
  ----------------------------------- OT ---------------------------------------

  Step     Update method      Time    Convergence         Total energy    Change
  ------------------------------------------------------------------------------
     1 OT DIIS     0.80E-01    1.0     0.00555373      -373.5682135155 -3.74E+02
     2 OT DIIS     0.80E-01    0.2     0.01043260      -373.5673965611  8.17E-04
     3 OT DIIS     0.80E-01    0.2     0.00281397      -373.5994565059 -3.21E-02
     4 OT DIIS     0.80E-01    0.2     0.00368528      -373.6078407537 -8.38E-03
     5 OT DIIS     0.80E-01    0.3     0.00120420      -373.6199364406 -1.21E-02
     6 OT DIIS     0.80E-01    0.3     0.00113862      -373.6215620059 -1.63E-03
     7 OT DIIS     0.80E-01    0.3     0.00079926      -373.6230939463 -1.53E-03
     8 OT DIIS     0.80E-01    0.3     0.00088354      -373.6251504976 -2.06E-03
     9 OT DIIS     0.80E-01    0.2     0.00046220      -373.6258754967 -7.25E-04
    10 OT DIIS     0.80E-01    0.2     0.00036639      -373.6263667050 -4.91E-04
    11 OT DIIS     0.80E-01    0.3     0.00021720      -373.6264534282 -8.67E-05
    12 OT DIIS     0.80E-01    0.2     0.00022259      -373.6265140485 -6.06E-05
    13 OT DIIS     0.80E-01    0.2     0.00015972      -373.6265598226 -4.58E-05
    14 OT DIIS     0.80E-01    0.2     0.00019384      -373.6266178827 -5.81E-05
    15 OT DIIS     0.80E-01    0.2     0.00012064      -373.6266621988 -4.43E-05
    16 OT DIIS     0.80E-01    0.2     0.00007280      -373.6266786082 -1.64E-05

  *** SCF run converged in    16 steps ***


  Core-core repulsion energy [eV]:                        1649009.95185897545889
  Core Hamiltonian energy [eV]:                            -16511.40797910599576
  Two-electron integral energy [eV]:                     -3285330.88570105470717
  Electronic energy [eV]:                                -1659176.85082963341847

  Total energy [eV]:                                       -10166.89897065786135

  Atomic reference energy [eV]:                             10135.12221567713459
  Heat of formation [kcal/mol]:                              -732.78943623436135

 ENERGY| Total FORCE_EVAL ( QS ) energy [hartree]           -373.626680803892668

 OPT| **************************************************************************
 OPT| Step number                                                              6
 OPT| Optimization method                                                   BFGS
 OPT| Total energy [hartree]                                     -373.6266808039
 OPT| Effective energy change [hartree]                            -0.0011794879
 OPT| Predicted energy change [hartree]                            -0.0003997310
 OPT| Scaling factor                                                0.0000000000
 OPT| Step size                                                     0.0100154477
 OPT| Trust radius                                                  0.4724315332
 OPT| Decrease in energy                                                     YES
 OPT| Used time [s]                                                        6.152
 OPT|
 OPT| Maximum step size                                             0.0100154477
 OPT| Convergence limit for maximum step size                       0.0030000000
 OPT| Maximum step size is converged                                          NO
 OPT|
 OPT| RMS step size                                                 0.0039336170
 OPT| Convergence limit for RMS step size                           0.0015000000
 OPT| RMS step size is converged                                              NO
 OPT|
 OPT| Maximum gradient                                              0.0039599834
 OPT| Convergence limit for maximum gradient                        0.0004500000
 OPT| Maximum gradient is converged                                           NO
 OPT|
 OPT| RMS gradient                                                  0.0007999758
 OPT| Convergence limit for RMS gradient                            0.0003000000
 OPT| RMS gradient is converged                                               NO
 OPT| **************************************************************************

 --------------------------
 OPTIMIZATION STEP:      7
 --------------------------

 Number of electrons:                                                        256
 Number of occupied orbitals:                                                128
 Number of molecular orbitals:                                               128

 Number of orbital functions:                                                192
 Number of independent orbital functions:                                    192

 Extrapolation method: ASPC


 SCF WAVEFUNCTION OPTIMIZATION

  ----------------------------------- OT ---------------------------------------
  Minimizer      : DIIS                : direct inversion
                                         in the iterative subspace
                                         using   7 DIIS vectors
                                         safer DIIS on
  Preconditioner : FULL_SINGLE_INVERSE : inversion of 
                                         H + eS - 2*(Sc)(c^T*H*c+const)(Sc)^T
  Precond_solver : DEFAULT
  stepsize       :    0.08000000                  energy_gap     :    0.08000000
  eps_taylor     :   0.10000E-15                  max_taylor     :             4
  ----------------------------------- OT ---------------------------------------

  Step     Update method      Time    Convergence         Total energy    Change
  ------------------------------------------------------------------------------
     1 OT DIIS     0.80E-01    1.0     0.00127434      -373.6222542449 -3.74E+02
     2 OT DIIS     0.80E-01    0.2     0.00190865      -373.6232515893 -9.97E-04
     3 OT DIIS     0.80E-01    0.2     0.00082393      -373.6244974047 -1.25E-03
     4 OT DIIS     0.80E-01    0.2     0.00083002      -373.6254869056 -9.90E-04
     5 OT DIIS     0.80E-01    0.2     0.00050776      -373.6267017604 -1.21E-03
     6 OT DIIS     0.80E-01    0.3     0.00033806      -373.6275275588 -8.26E-04
     7 OT DIIS     0.80E-01    0.3     0.00023084      -373.6276230853 -9.55E-05
     8 OT DIIS     0.80E-01    0.3     0.00019666      -373.6277413487 -1.18E-04
     9 OT DIIS     0.80E-01    0.3     0.00016270      -373.6277686531 -2.73E-05
    10 OT DIIS     0.80E-01    0.3     0.00011225      -373.6278402979 -7.16E-05
    11 OT DIIS     0.80E-01    0.3     0.00010814      -373.6278554827 -1.52E-05
    12 OT DIIS     0.80E-01    0.3     0.00008145      -373.6278703661 -1.49E-05

  *** SCF run converged in    12 steps ***


  Core-core repulsion energy [eV]:                        1648986.18120531947352
  Core Hamiltonian energy [eV]:                            -16513.16808824675900
  Two-electron integral energy [eV]:                     -3285279.88903422467411
  Electronic energy [eV]:                                -1659153.11260535917245

  Total energy [eV]:                                       -10166.93140003962799

  Atomic reference energy [eV]:                             10135.12221567713459
  Heat of formation [kcal/mol]:                              -733.53727560299819

 ENERGY| Total FORCE_EVAL ( QS ) energy [hartree]           -373.627879510408093

 OPT| **************************************************************************
 OPT| Step number                                                              7
 OPT| Optimization method                                                   BFGS
 OPT| Total energy [hartree]                                     -373.6278795104
 OPT| Effective energy change [hartree]                            -0.0011987065
 OPT| Predicted energy change [hartree]                            -0.0003518316
 OPT| Scaling factor                                                0.0000000000
 OPT| Step size                                                     0.0153289842
 OPT| Trust radius                                                  0.4724315332
 OPT| Decrease in energy                                                     YES
 OPT| Used time [s]                                                        5.235
 OPT|
 OPT| Maximum step size                                             0.0153289842
 OPT| Convergence limit for maximum step size                       0.0030000000
 OPT| Maximum step size is converged                                          NO
 OPT|
 OPT| RMS step size                                                 0.0065888633
 OPT| Convergence limit for RMS step size                           0.0015000000
 OPT| RMS step size is converged                                              NO
 OPT|
 OPT| Maximum gradient                                              0.0025423201
 OPT| Convergence limit for maximum gradient                        0.0004500000
 OPT| Maximum gradient is converged                                           NO
 OPT|
 OPT| RMS gradient                                                  0.0008541667
 OPT| Convergence limit for RMS gradient                            0.0003000000
 OPT| RMS gradient is converged                                               NO
 OPT| **************************************************************************

 --------------------------
 OPTIMIZATION STEP:      8
 --------------------------

 Number of electrons:                                                        256
 Number of occupied orbitals:                                                128
 Number of molecular orbitals:                                               128

 Number of orbital functions:                                                192
 Number of independent orbital functions:                                    192

 Extrapolation method: ASPC


 SCF WAVEFUNCTION OPTIMIZATION

  ----------------------------------- OT ---------------------------------------
  Minimizer      : DIIS                : direct inversion
                                         in the iterative subspace
                                         using   7 DIIS vectors
                                         safer DIIS on
  Preconditioner : FULL_SINGLE_INVERSE : inversion of 
                                         H + eS - 2*(Sc)(c^T*H*c+const)(Sc)^T
  Precond_solver : DEFAULT
  stepsize       :    0.08000000                  energy_gap     :    0.08000000
  eps_taylor     :   0.10000E-15                  max_taylor     :             4
  ----------------------------------- OT ---------------------------------------

  Step     Update method      Time    Convergence         Total energy    Change
  ------------------------------------------------------------------------------
     1 OT DIIS     0.80E-01    1.0     0.00123020      -373.6281532709 -3.74E+02
     2 OT DIIS     0.80E-01    0.2     0.00186719      -373.6289696911 -8.16E-04
     3 OT DIIS     0.80E-01    0.2     0.00077048      -373.6301908405 -1.22E-03
     4 OT DIIS     0.80E-01    0.2     0.00084421      -373.6310668407 -8.76E-04
     5 OT DIIS     0.80E-01    0.2     0.00042658      -373.6324073235 -1.34E-03
     6 OT DIIS     0.80E-01    0.3     0.00036431      -373.6328882390 -4.81E-04
     7 OT DIIS     0.80E-01    0.3     0.00019210      -373.6329927162 -1.04E-04
     8 OT DIIS     0.80E-01    0.3     0.00019164      -373.6330822138 -8.95E-05
     9 OT DIIS     0.80E-01    0.3     0.00014593      -373.6331075057 -2.53E-05
    10 OT DIIS     0.80E-01    0.3     0.00011920      -373.6331728432 -6.53E-05
    11 OT DIIS     0.80E-01    0.3     0.00009631      -373.6331843520 -1.15E-05

  *** SCF run converged in    11 steps ***


  Core-core repulsion energy [eV]:                        1649171.13899985072203
  Core Hamiltonian energy [eV]:                            -16517.56052221084610
  Two-electron integral energy [eV]:                     -3285641.30895718000829
  Electronic energy [eV]:                                -1659338.21500080078840

  Total energy [eV]:                                       -10167.07600095018461

  Atomic reference energy [eV]:                             10135.12221567713459
  Heat of formation [kcal/mol]:                              -736.87185208162578

 ENERGY| Total FORCE_EVAL ( QS ) energy [hartree]           -373.633195808404707

 OPT| **************************************************************************
 OPT| Step number                                                              8
 OPT| Optimization method                                                   BFGS
 OPT| Total energy [hartree]                                     -373.6331958084
 OPT| Effective energy change [hartree]                            -0.0053162980
 OPT| Predicted energy change [hartree]                            -0.0009332388
 OPT| Scaling factor                                                0.0000000000
 OPT| Step size                                                     0.0543219626
 OPT| Trust radius                                                  0.4724315332
 OPT| Decrease in energy                                                     YES
 OPT| Used time [s]                                                        5.035
 OPT|
 OPT| Maximum step size                                             0.0543219626
 OPT| Convergence limit for maximum step size                       0.0030000000
 OPT| Maximum step size is converged                                          NO
 OPT|
 OPT| RMS step size                                                 0.0216719420
 OPT| Convergence limit for RMS step size                           0.0015000000
 OPT| RMS step size is converged                                              NO
 OPT|
 OPT| Maximum gradient                                              0.0098019682
 OPT| Convergence limit for maximum gradient                        0.0004500000
 OPT| Maximum gradient is converged                                           NO
 OPT|
 OPT| RMS gradient                                                  0.0017118338
 OPT| Convergence limit for RMS gradient                            0.0003000000
 OPT| RMS gradient is converged                                               NO
 OPT| **************************************************************************

 --------------------------
 OPTIMIZATION STEP:      9
 --------------------------

 Number of electrons:                                                        256
 Number of occupied orbitals:                                                128
 Number of molecular orbitals:                                               128

 Number of orbital functions:                                                192
 Number of independent orbital functions:                                    192

 Extrapolation method: ASPC


 SCF WAVEFUNCTION OPTIMIZATION

  ----------------------------------- OT ---------------------------------------
  Minimizer      : DIIS                : direct inversion
                                         in the iterative subspace
                                         using   7 DIIS vectors
                                         safer DIIS on
  Preconditioner : FULL_SINGLE_INVERSE : inversion of 
                                         H + eS - 2*(Sc)(c^T*H*c+const)(Sc)^T
  Precond_solver : DEFAULT
  stepsize       :    0.08000000                  energy_gap     :    0.08000000
  eps_taylor     :   0.10000E-15                  max_taylor     :             4
  ----------------------------------- OT ---------------------------------------

  Step     Update method      Time    Convergence         Total energy    Change
  ------------------------------------------------------------------------------
     1 OT DIIS     0.80E-01    1.0     0.00172948      -373.6248942498 -3.74E+02
     2 OT DIIS     0.80E-01    0.2     0.00279900      -373.6259865591 -1.09E-03
     3 OT DIIS     0.80E-01    0.2     0.00105894      -373.6285606353 -2.57E-03
     4 OT DIIS     0.80E-01    0.2     0.00111916      -373.6298572500 -1.30E-03
     5 OT DIIS     0.80E-01    0.2     0.00061269      -373.6321182341 -2.26E-03
     6 OT DIIS     0.80E-01    0.3     0.00051367      -373.6332867739 -1.17E-03
     7 OT DIIS     0.80E-01    0.3     0.00027022      -373.6334938190 -2.07E-04
     8 OT DIIS     0.80E-01    0.3     0.00025568      -373.6336637508 -1.70E-04
     9 OT DIIS     0.80E-01    0.3     0.00021551      -373.6337101002 -4.63E-05
    10 OT DIIS     0.80E-01    0.3     0.00016720      -373.6338396907 -1.30E-04
    11 OT DIIS     0.80E-01    0.3     0.00015186      -373.6338585805 -1.89E-05
    12 OT DIIS     0.80E-01    0.3     0.00012513      -373.6338863237 -2.77E-05
    13 OT DIIS     0.80E-01    0.3     0.00007949      -373.6339019546 -1.56E-05

  *** SCF run converged in    13 steps ***


  Core-core repulsion energy [eV]:                        1649632.62119841831736
  Core Hamiltonian energy [eV]:                            -16516.83065712929965
  Two-electron integral energy [eV]:                     -3286565.77213839674369
  Electronic energy [eV]:                                -1659799.71672632778063

  Total energy [eV]:                                       -10167.09552790932685

  Atomic reference energy [eV]:                             10135.12221567713459
  Heat of formation [kcal/mol]:                              -737.32215449259149

 ENERGY| Total FORCE_EVAL ( QS ) energy [hartree]           -373.633913724377635

 OPT| **************************************************************************
 OPT| Step number                                                              9
 OPT| Optimization method                                                   BFGS
 OPT| Total energy [hartree]                                     -373.6339137244
 OPT| Effective energy change [hartree]                            -0.0007179160
 OPT| Predicted energy change [hartree]                            -0.0007488403
 OPT| Scaling factor                                                0.0000000000
 OPT| Step size                                                     0.0409078777
 OPT| Trust radius                                                  0.4724315332
 OPT| Decrease in energy                                                     YES
 OPT| Used time [s]                                                        5.467
 OPT|
 OPT| Maximum step size                                             0.0409078777
 OPT| Convergence limit for maximum step size                       0.0030000000
 OPT| Maximum step size is converged                                          NO
 OPT|
 OPT| RMS step size                                                 0.0194051400
 OPT| Convergence limit for RMS step size                           0.0015000000
 OPT| RMS step size is converged                                              NO
 OPT|
 OPT| Maximum gradient                                              0.0124523450
 OPT| Convergence limit for maximum gradient                        0.0004500000
 OPT| Maximum gradient is converged                                           NO
 OPT|
 OPT| RMS gradient                                                  0.0020482373
 OPT| Convergence limit for RMS gradient                            0.0003000000
 OPT| RMS gradient is converged                                               NO
 OPT| **************************************************************************

 --------------------------
 OPTIMIZATION STEP:     10
 --------------------------

 Number of electrons:                                                        256
 Number of occupied orbitals:                                                128
 Number of molecular orbitals:                                               128

 Number of orbital functions:                                                192
 Number of independent orbital functions:                                    192

 Extrapolation method: ASPC


 SCF WAVEFUNCTION OPTIMIZATION

  ----------------------------------- OT ---------------------------------------
  Minimizer      : DIIS                : direct inversion
                                         in the iterative subspace
                                         using   7 DIIS vectors
                                         safer DIIS on
  Preconditioner : FULL_SINGLE_INVERSE : inversion of 
                                         H + eS - 2*(Sc)(c^T*H*c+const)(Sc)^T
  Precond_solver : DEFAULT
  stepsize       :    0.08000000                  energy_gap     :    0.08000000
  eps_taylor     :   0.10000E-15                  max_taylor     :             4
  ----------------------------------- OT ---------------------------------------

  Step     Update method      Time    Convergence         Total energy    Change
  ------------------------------------------------------------------------------
     1 OT DIIS     0.80E-01    1.0     0.00233346      -373.6050356370 -3.74E+02
     2 OT DIIS     0.80E-01    0.2     0.00299710      -373.6107237998 -5.69E-03
     3 OT DIIS     0.80E-01    0.2     0.00170419      -373.6142295313 -3.51E-03
     4 OT DIIS     0.80E-01    0.2     0.00182224      -373.6194236899 -5.19E-03
     5 OT DIIS     0.80E-01    0.3     0.00097623      -373.6244268429 -5.00E-03
     6 OT DIIS     0.80E-01    0.3     0.00055065      -373.6265940423 -2.17E-03
     7 OT DIIS     0.80E-01    0.3     0.00037621      -373.6268518685 -2.58E-04
     8 OT DIIS     0.80E-01    0.3     0.00031232      -373.6271684213 -3.17E-04
     9 OT DIIS     0.80E-01    0.3     0.00030573      -373.6272620297 -9.36E-05
    10 OT DIIS     0.80E-01    0.3     0.00020881      -373.6274859941 -2.24E-04
    11 OT DIIS     0.80E-01    0.3     0.00019356      -373.6275396501 -5.37E-05
    12 OT DIIS     0.80E-01    0.3     0.00014475      -373.6275919500 -5.23E-05
    13 OT DIIS     0.80E-01    0.3     0.00011938      -373.6276186509 -2.67E-05
    14 OT DIIS     0.80E-01    0.3     0.00009255      -373.6276430622 -2.44E-05

  *** SCF run converged in    14 steps ***


  Core-core repulsion energy [eV]:                        1650766.08273731963709
  Core Hamiltonian energy [eV]:                            -16508.42350637828713
  Two-electron integral energy [eV]:                     -3288849.16889145737514
  Electronic energy [eV]:                                -1660933.00795210688375

  Total energy [eV]:                                       -10166.92521478716844

  Atomic reference energy [eV]:                             10135.12221567713459
  Heat of formation [kcal/mol]:                              -733.39464028148848

 ENERGY| Total FORCE_EVAL ( QS ) energy [hartree]           -373.627652508665051

 OPT| **************************************************************************
 OPT| Step number                                                             10
 OPT| Optimization method                                                   BFGS
 OPT| Total energy [hartree]                                     -373.6276525087
 OPT| Effective energy change [hartree]                             0.0062612157
 OPT| Predicted energy change [hartree]                            -0.0014466758
 OPT| Scaling factor                                                0.0000000000
 OPT| Step size                                                     0.0805186267
 OPT| Trust radius                                                  0.4724315332
 OPT| Decrease in energy                                                      NO
 OPT| Used time [s]                                                        5.766
 OPT|
 OPT| Maximum step size                                             0.0805186267
 OPT| Convergence limit for maximum step size                       0.0030000000
 OPT| Maximum step size is converged                                          NO
 OPT|
 OPT| RMS step size                                                 0.0389478770
 OPT| Convergence limit for RMS step size                           0.0015000000
 OPT| RMS step size is converged                                              NO
 OPT|
 OPT| Maximum gradient                                              0.0130686464
 OPT| Convergence limit for maximum gradient                        0.0004500000
 OPT| Maximum gradient is converged                                           NO
 OPT|
 OPT| RMS gradient                                                  0.0021361703
 OPT| Convergence limit for RMS gradient                            0.0003000000
 OPT| RMS gradient is converged                                               NO
 OPT| **************************************************************************

 --------------------------
 OPTIMIZATION STEP:     11
 --------------------------

 Number of electrons:                                                        256
 Number of occupied orbitals:                                                128
 Number of molecular orbitals:                                               128

 Number of orbital functions:                                                192
 Number of independent orbital functions:                                    192

 Extrapolation method: ASPC


 SCF WAVEFUNCTION OPTIMIZATION

  ----------------------------------- OT ---------------------------------------
  Minimizer      : DIIS                : direct inversion
                                         in the iterative subspace
                                         using   7 DIIS vectors
                                         safer DIIS on
  Preconditioner : FULL_SINGLE_INVERSE : inversion of 
                                         H + eS - 2*(Sc)(c^T*H*c+const)(Sc)^T
  Precond_solver : DEFAULT
  stepsize       :    0.08000000                  energy_gap     :    0.08000000
  eps_taylor     :   0.10000E-15                  max_taylor     :             4
  ----------------------------------- OT ---------------------------------------

  Step     Update method      Time    Convergence         Total energy    Change
  ------------------------------------------------------------------------------
     1 OT DIIS     0.80E-01    1.0     0.00429835      -373.5938256483 -3.74E+02
     2 OT DIIS     0.80E-01    0.2     0.00828297      -373.5858860228  7.94E-03
     3 OT DIIS     0.80E-01    0.2     0.00173016      -373.6073993807 -2.15E-02
     4 OT DIIS     0.80E-01    0.3     0.00207944      -373.6103813315 -2.98E-03
     5 OT DIIS     0.80E-01    0.3     0.00097758      -373.6159130233 -5.53E-03
     6 OT DIIS     0.80E-01    0.3     0.00087386      -373.6180993749 -2.19E-03
     7 OT DIIS     0.80E-01    0.3     0.00036654      -373.6185812401 -4.82E-04
     8 OT DIIS     0.80E-01    0.3     0.00039640      -373.6188330657 -2.52E-04
     9 OT DIIS     0.80E-01    0.3     0.00025262      -373.6189153586 -8.23E-05
    10 OT DIIS     0.80E-01    0.3     0.00025218      -373.6190467024 -1.31E-04
    11 OT DIIS     0.80E-01    0.3     0.00014477      -373.6190807012 -3.40E-05
    12 OT DIIS     0.80E-01    0.3     0.00013621      -373.6190984534 -1.78E-05
    13 OT DIIS     0.80E-01    0.3     0.00009798      -373.6191139188 -1.55E-05

  *** SCF run converged in    13 steps ***


  Core-core repulsion energy [eV]:                        1651895.26991118653677
  Core Hamiltonian energy [eV]:                            -16493.16971809825918
  Two-electron integral energy [eV]:                     -3291137.58663615630940
  Electronic energy [eV]:                                -1662061.96303617628291

  Total energy [eV]:                                       -10166.69312498994805

  Atomic reference energy [eV]:                             10135.12221567713459
  Heat of formation [kcal/mol]:                              -728.04252198733093

 ENERGY| Total FORCE_EVAL ( QS ) energy [hartree]           -373.619126972349477

 OPT| **************************************************************************
 OPT| Step number                                                             11
 OPT| Optimization method                                                   BFGS
 OPT| Total energy [hartree]                                     -373.6191269723
 OPT| Effective energy change [hartree]                             0.0085255363
 OPT| Predicted energy change [hartree]                            -0.0027047282
 OPT| Scaling factor                                                0.0000000000
 OPT| Step size                                                     0.1935543270
 OPT| Trust radius                                                  0.4724315332
 OPT| Decrease in energy                                                      NO
 OPT| Used time [s]                                                        5.502
 OPT|
 OPT| Maximum step size                                             0.1935543270
 OPT| Convergence limit for maximum step size                       0.0030000000
 OPT| Maximum step size is converged                                          NO
 OPT|
 OPT| RMS step size                                                 0.0924444383
 OPT| Convergence limit for RMS step size                           0.0015000000
 OPT| RMS step size is converged                                              NO
 OPT|
 OPT| Maximum gradient                                              0.0208994085
 OPT| Convergence limit for maximum gradient                        0.0004500000
 OPT| Maximum gradient is converged                                           NO
 OPT|
[...]
    22 OT DIIS     0.80E-01    0.3     0.00018853      -373.6531220511 -3.18E-05
    23 OT DIIS     0.80E-01    0.3     0.00014432      -373.6531494127 -2.74E-05
    24 OT DIIS     0.80E-01    0.3     0.00014525      -373.6531578403 -8.43E-06
    25 OT DIIS     0.80E-01    0.2     0.00007649      -373.6531727827 -1.49E-05

  *** SCF run converged in    25 steps ***


  Core-core repulsion energy [eV]:                        1652959.21127204084769
  Core Hamiltonian energy [eV]:                            -16509.48121465919394
  Two-electron integral energy [eV]:                     -3293234.69994238158688
  Electronic energy [eV]:                                -1663126.83118585008197

  Total energy [eV]:                                       -10167.61991380907784

  Atomic reference energy [eV]:                             10135.12221567713459
  Heat of formation [kcal/mol]:                              -749.41478157428105

 ENERGY| Total FORCE_EVAL ( QS ) energy [hartree]           -373.653182941154228

 OPT| **************************************************************************
 OPT| Step number                                                             99
 OPT| Optimization method                                                   BFGS
 OPT| Total energy [hartree]                                     -373.6531829412
 OPT| Effective energy change [hartree]                            -0.0001899284
 OPT| Predicted energy change [hartree]                            -0.0002140159
 OPT| Scaling factor                                                0.8925717357
 OPT| Step size                                                     0.0507586368
 OPT| Trust radius                                                  0.4724315332
 OPT| Decrease in energy                                                     YES
 OPT| Used time [s]                                                        8.599
 OPT|
 OPT| Maximum step size                                             0.0507586368
 OPT| Convergence limit for maximum step size                       0.0030000000
 OPT| Maximum step size is converged                                          NO
 OPT|
 OPT| RMS step size                                                 0.0136681779
 OPT| Convergence limit for RMS step size                           0.0015000000
 OPT| RMS step size is converged                                              NO
 OPT|
 OPT| Maximum gradient                                              0.0024893560
 OPT| Convergence limit for maximum gradient                        0.0004500000
 OPT| Maximum gradient is converged                                           NO
 OPT|
 OPT| RMS gradient                                                  0.0005324711
 OPT| Convergence limit for RMS gradient                            0.0003000000
 OPT| RMS gradient is converged                                               NO
 OPT| **************************************************************************

 --------------------------
 OPTIMIZATION STEP:    100
 --------------------------

 Number of electrons:                                                        256
 Number of occupied orbitals:                                                128
 Number of molecular orbitals:                                               128

 Number of orbital functions:                                                192
 Number of independent orbital functions:                                    192

 Extrapolation method: ASPC


 SCF WAVEFUNCTION OPTIMIZATION

  ----------------------------------- OT ---------------------------------------
  Minimizer      : DIIS                : direct inversion
                                         in the iterative subspace
                                         using   7 DIIS vectors
                                         safer DIIS on
  Preconditioner : FULL_SINGLE_INVERSE : inversion of 
                                         H + eS - 2*(Sc)(c^T*H*c+const)(Sc)^T
  Precond_solver : DEFAULT
  stepsize       :    0.08000000                  energy_gap     :    0.08000000
  eps_taylor     :   0.10000E-15                  max_taylor     :             4
  ----------------------------------- OT ---------------------------------------

  Step     Update method      Time    Convergence         Total energy    Change
  ------------------------------------------------------------------------------
     1 OT DIIS     0.80E-01    1.0     0.00668035      -373.4181770267 -3.73E+02
     2 OT DIIS     0.80E-01    0.2     0.00821435      -373.4713950479 -5.32E-02
     3 OT DIIS     0.80E-01    0.3     0.00488814      -373.5008631409 -2.95E-02
     4 OT DIIS     0.80E-01    0.3     0.00464946      -373.5884647172 -8.76E-02
     5 OT DIIS     0.80E-01    0.2     0.00270957      -373.6190493571 -3.06E-02
     6 OT DIIS     0.80E-01    0.2     0.00198889      -373.6351585584 -1.61E-02
     7 OT DIIS     0.80E-01    0.2     0.00174961      -373.6421882619 -7.03E-03
     8 OT DIIS     0.80E-01    0.2     0.00094159      -373.6499356116 -7.75E-03
     9 OT DIIS     0.80E-01    0.2     0.00104573      -373.6507694039 -8.34E-04
    10 OT DIIS     0.80E-01    0.3     0.00060540      -373.6518695234 -1.10E-03
    11 OT DIIS     0.80E-01    0.2     0.00043217      -373.6525680896 -6.99E-04
    12 OT DIIS     0.80E-01    0.2     0.00034314      -373.6531331921 -5.65E-04
    13 OT DIIS     0.80E-01    0.2     0.00026981      -373.6532202095 -8.70E-05
    14 OT DIIS     0.80E-01    0.2     0.00026555      -373.6532630772 -4.29E-05
    15 OT DIIS     0.80E-01    0.2     0.00010987      -373.6532974660 -3.44E-05
    16 OT DIIS     0.80E-01    0.2     0.00009085      -373.6533067379 -9.27E-06

  *** SCF run converged in    16 steps ***


  Core-core repulsion energy [eV]:                        1652999.56525139417499
  Core Hamiltonian energy [eV]:                            -16509.49937324522762
  Two-electron integral energy [eV]:                     -3293315.37887413194403
  Electronic energy [eV]:                                -1663167.18881031125784

  Total energy [eV]:                                       -10167.62355891712832

  Atomic reference energy [eV]:                             10135.12221567713459
  Heat of formation [kcal/mol]:                              -749.49883976947262

 ENERGY| Total FORCE_EVAL ( QS ) energy [hartree]           -373.653316386160441

 OPT| **************************************************************************
 OPT| Step number                                                            100
 OPT| Optimization method                                                   BFGS
 OPT| Total energy [hartree]                                     -373.6533163862
 OPT| Effective energy change [hartree]                            -0.0001334450
 OPT| Predicted energy change [hartree]                            -0.0001862275
 OPT| Scaling factor                                                0.8925717357
 OPT| Step size                                                     0.0325999811
 OPT| Trust radius                                                  0.4724315332
 OPT| Decrease in energy                                                     YES
 OPT| Used time [s]                                                        6.147
 OPT|
 OPT| Maximum step size                                             0.0325999811
 OPT| Convergence limit for maximum step size                       0.0030000000
 OPT| Maximum step size is converged                                          NO
 OPT|
 OPT| RMS step size                                                 0.0098879007
 OPT| Convergence limit for RMS step size                           0.0015000000
 OPT| RMS step size is converged                                              NO
 OPT|
 OPT| Maximum gradient                                              0.0024069969
 OPT| Convergence limit for maximum gradient                        0.0004500000
 OPT| Maximum gradient is converged                                           NO
 OPT|
 OPT| RMS gradient                                                  0.0004391484
 OPT| Convergence limit for RMS gradient                            0.0003000000
 OPT| RMS gradient is converged                                               NO
 OPT| **************************************************************************

 *** MAXIMUM NUMBER OF OPTIMIZATION STEPS REACHED ***
 ***        EXITING GEOMETRY OPTIMIZATION         ***

 -------------------------------------------------------------------------------
 -                                                                             -
 -                                DBCSR STATISTICS                             -
 -                                                                             -
 -------------------------------------------------------------------------------
 COUNTER                                    TOTAL       BLAS       SMM       ACC
 flops     1 x    32 x    32            264765440     100.0%      0.0%      0.0%     
 flops    32 x    32 x   192            397148160     100.0%      0.0%      0.0%     
 flops     4 x    32 x    32            529530880     100.0%      0.0%      0.0%     
 flops     1 x     1 x   128           1122661376     100.0%      0.0%      0.0%     
 flops     1 x     4 x   128           2104795136     100.0%      0.0%      0.0%     
 flops     4 x     1 x   128           2106101760     100.0%      0.0%      0.0%     
 flops     1 x    32 x     1           2208403456     100.0%      0.0%      0.0%     
 flops     4 x     4 x   128           3868176384     100.0%      0.0%      0.0%     
 flops     4 x    32 x     1           4197608448     100.0%      0.0%      0.0%     
 flops     1 x    32 x     4           4197608448     100.0%      0.0%      0.0%     
 flops    24 x   128 x   192           4857790464     100.0%      0.0%      0.0%     
 flops    28 x   128 x   192           5667422208     100.0%      0.0%      0.0%     
 flops     4 x    32 x     4           7378812928     100.0%      0.0%      0.0%     
 flops    25 x   128 x   192           7590297600     100.0%      0.0%      0.0%     
 flops    24 x   128 x   128          15080620032     100.0%      0.0%      0.0%     
 flops    28 x   128 x   128          17594056704     100.0%      0.0%      0.0%     
 flops    25 x   128 x   128          23563468800     100.0%      0.0%      0.0%     
 flops    32 x   128 x   192          48639246336     100.0%      0.0%      0.0%     
 flops    32 x   128 x   128          75304534016     100.0%      0.0%      0.0%     
 flops inhomo. stacks                 11630739456     100.0%      0.0%      0.0%
 flops total                       238.303788E+09     100.0%      0.0%      0.0%
 flops max/rank                    238.303788E+09     100.0%      0.0%      0.0%
 matmuls inhomo. stacks                     11647     100.0%      0.0%      0.0%
 matmuls total                           84338817     100.0%      0.0%      0.0%
 number of processed stacks                387899     100.0%      0.0%      0.0%
 average stack size                                   217.4       0.0       0.0
 marketing flops                   247.017243E+09
 -------------------------------------------------------------------------------
 # multiplications                          42057
 max memory usage/rank               0.000000E+00
 # max total images/rank                        1
 # max 3D layers                                1
 # MPI messages exchanged                       0
 -------------------------------------------------------------------------------

 -------------------------------------------------------------------------------
 -                                                                             -
 -                                DBM STATISTICS                               -
 -                                                                             -
 -------------------------------------------------------------------------------
    M  x    N  x    K                                          COUNT     PERCENT
 -------------------------------------------------------------------------------

 -------------------------------------------------------------------------------
 -                                                                             -
 -                                GRID STATISTICS                              -
 -                                                                             -
 -------------------------------------------------------------------------------
 LP    KERNEL             BACKEND                              COUNT     PERCENT
 -------------------------------------------------------------------------------

 MEMORY| Estimated peak process memory [MiB]                                   0

 -------------------------------------------------------------------------------
 -                                                                             -
 -                           R E F E R E N C E S                               -
 -                                                                             -
 -------------------------------------------------------------------------------
 
 CP2K version 2025.1, the CP2K developers group (2025).
 CP2K is freely available from https://www.cp2k.org/ .
 
 T. D. Kuehne, M. Iannuzzi, M. Del Ben, V. V. Rybkin, P. Seewald, F. Stein, T. 
 Laino, R. Z. Khaliullin, O. Schuett, F. Schiffmann, D. Golze, J. Wilhelm, S. 
 Chulkov, M. H. Bani-Hashemian, V. Weber, U. Borstnik, M. Taillefumier, A. S. 
 Jakobovits, A. Lazzaro, H. Pabst, T. Mueller, R. Schade, M. Guidon, S. 
 Andermatt, N. Holmberg, G. K. Schenter, A. Hehn, A. Bussy, F. Belleflamme, G. 
 Tabacchi, A. Gloess, M. Lass, I. Bethune, C. J. Mundy, C. Plessl, M. Watkins, 
 J. VandeVondele, M. Krack, J. Hutter.
 J. Chem. Phys. 152, 194103 (2020).
 CP2K: An electronic structure and molecular dynamics software package - 
 Quickstep: Efficient and accurate electronic structure calculations.
 https://doi.org/10.1063/5.0007045

 O. Schuett, P. Messmer, J. Hutter, J. VandeVondele.
 Electronic Structure Calculations on Graphics Processing Units, 173-190 (2016).
 GPU-Accelerated Sparse Matrix-Matrix Multiplication for Linear Scaling Density 
 Functional Theory.
 https://doi.org/10.1002/9781118670712.ch8

 J. Hutter, M. Iannuzzi, F. Schiffmann, J. VandeVondele.
 WIREs Comput Mol Sci. 4, 15-25 (2014).
 CP2K: atomistic simulations of condensed matter systems.
 https://doi.org/10.1002/wcms.1159

 U. Borstnik, J. VandeVondele, V. Weber, J. Hutter.
 Parallel Comput. 40, 47-58 (2014).
 Sparse matrix multiplication: The distributed block-compressed sparse row 
 library.
 https://doi.org/10.1016/j.parco.2014.03.012

 J. J. P. Stewart.
 J. Mol. Model. 13, 1173-1213 (2007).
 Optimization of parameters for semiempirical methods V: Modification of NDDO 
 approximations and application to 70 elements.
 https://doi.org/10.1007/s00894-007-0233-4

 T. D. Khne, M. Krack, F. R. Mohamed, M. Parrinello.
 Phys. Rev. Lett. 98, 066401 (2007).
 Efficient and accurate Car-Parrinello-like approach to Born-Oppenheimer 
 molecular dynamics.
 https://doi.org/10.1103/PhysRevLett.98.066401

 M. Frigo, S. G. Johnson.
 Proc. IEEE 93, 216-231 (2005).
 The design and implementation of FFTW3.
 https://doi.org/10.1109/JPROC.2004.840301

 J. Kolafa.
 J. Comput. Chem. 25, 335-342 (2004).
 Time-reversible always stable predictor-corrector method for molecular dynamics 
 of polarizable molecules.
 https://doi.org/10.1002/jcc.10385

 J. VandeVondele, J. Hutter.
 J. Chem. Phys. 118, 4365-4369 (2003).
 An efficient orbital transformation method for electronic structure 
 calculations.
 https://doi.org/10.1063/1.1543154


 -------------------------------------------------------------------------------
 -                                                                             -
 -                                T I M I N G                                  -
 -                                                                             -
 -------------------------------------------------------------------------------
 SUBROUTINE                       CALLS  ASD         SELF TIME        TOTAL TIME
                                MAXIMUM       AVERAGE  MAXIMUM  AVERAGE  MAXIMUM
 CP2K                                 1  1.0    0.011    0.011  712.948  712.948
 cp_geo_opt                           1  2.0    0.000    0.000  712.929  712.929
 geoopt_bfgs                          1  3.0    0.034    0.034  712.929  712.929
 cp_eval_at                         101  4.0    0.006    0.006  711.307  711.307
 qs_forces                          101  5.0    0.008    0.008  711.296  711.296
 qs_energies                        101  6.0    0.003    0.003  572.847  572.847
 scf_env_do_scf                     101  7.0    0.003    0.003  564.097  564.097
 rebuild_ks_matrix                 2059  9.9    0.003    0.003  505.753  505.753
 build_se_fock_matrix              2059 10.9    1.179    1.179  505.750  505.750
 build_fock_matrix_coulomb         2059 11.9  478.311  478.311  485.892  485.892
 scf_env_do_scf_inner_loop         1958  8.0    0.123    0.123  466.519  466.519
 qs_ks_update_qs_env               2059  9.0    0.007    0.007  375.268  375.268
 qs_scf_new_mos                    1958  9.0    0.007    0.007  181.809  181.809
 qs_scf_loop_do_ot                 1958 10.0    0.008    0.008  181.802  181.802
 ot_scf_mini                       1958 11.0    0.021    0.021  174.316  174.316
 dbcsr_multiply_generic           42057 14.2    2.733    2.733  138.565  138.565
 qs_ks_update_qs_env_forces         101  6.0    0.000    0.000  130.750  130.750
 ot_mini                           1958 12.0    0.007    0.007  126.707  126.707
 init_scf_loop                      101  8.0    0.002    0.002   97.465   97.465
 qs_ot_get_derivative              1958 13.0    0.009    0.009   93.002   93.002
 make_m2s                         84114 15.2    0.480    0.480   61.602   61.602
 dbcsr_finalize                  106463 15.4   18.179   18.179   60.933   60.933
 dbcsr_add_d                      39621 14.2    0.034    0.034   45.211   45.211
 dbcsr_add_anytype                39621 15.2    3.424    3.424   45.178   45.178
 qs_ot_get_derivative_diag         1190 14.0    0.018    0.018   40.871   40.871
 dbcsr_merge_all                  97859 16.4   36.797   36.797   40.495   40.495
 qs_ot_get_p                       2059 11.9    0.007    0.007   35.399   35.399
 ot_diis_step                      1958 13.0    0.044    0.044   33.688   33.688
 qs_ot_get_derivative_taylor        768 14.0    0.017    0.017   33.047   33.047
 dbcsr_make_dense_low            116518 17.1    0.441    0.441   31.956   31.956
 make_dense_data                 116518 18.1    9.220    9.220   31.235   31.235
 make_images                      84114 16.2   19.347   19.347   29.728   29.728
 dbcsr_iterator_start            715380 17.5   24.273   24.273   24.521   24.521
 multiply_cannon                  42057 15.2    5.787    5.787   24.001   24.001
 dbcsr_make_images_dense          79186 16.3    0.233    0.233   22.524   22.524
 dbcsr_iterator_stop             715380 17.5   14.335   14.335   14.460   14.460
 -------------------------------------------------------------------------------

 The number of warnings for this run is : 0
 
 -------------------------------------------------------------------------------
  **** **** ******  **  PROGRAM ENDED AT                 2026-02-16 22:13:44.042
 ***** ** ***  *** **   PROGRAM RAN ON                     MacBook-Air-950.local
 **    ****   ******    PROGRAM RAN BY                           mackenziehenley
 ***** **    ** ** **   PROGRAM PROCESS ID                                 70809
  **** **  *******  **  PROGRAM STOPPED IN /Users/mackenziehenley/cp2k/D2O_ice/C
                                           P2K
