      96
 i =        1, E =      -372.5290706741
  O        -0.0077697966        2.5995681346        0.4605791570
  H         0.7885851427        2.5941052358        0.4578412244
  H        -0.4062312485        3.2892056022        0.4601206140
  O         2.2546825211        1.2922587520        2.3004907045
  H         3.0515787520        1.2942944506        2.3048091296
  H         1.8523584208        1.9801408696        2.2915980128
  O        -0.0090344214        2.6002839457        4.1381032600
  H         0.7872037459        2.5905757709        4.1370842614
  H        -0.4036676555        3.2925581294        4.1383551925
  O         2.2553880145        1.2925146720        5.9794112757
  H         3.0513722375        1.2943144078        5.9757933719
  H         1.8512726765        1.9791120477        5.9743718516
  O        -0.0086398443        2.5967556045        7.8142655785
  H         0.7883570873        2.5971925912        7.8176140597
  H        -0.4049277337        3.2895224078        7.8163361595
  O         2.2530398731        1.2936661052        9.6558004533
  H         3.0497011492        1.2896767083        9.6533626033
  H         1.8545529323        1.9836416502        9.6547444722
  O        -0.0082001728        2.5974841333       11.4985505154
  H         0.7890128593        2.5975420466       11.4900750987
  H        -0.4059125651        3.2886898954       11.4921547696
  O         2.2555808714        1.2954521388       13.3307487605
  H         3.0511135084        1.2908413787       13.3301197914
  H         1.8514287887        1.9811458634       13.3370576175
  O        -2.2687014825        6.5052497187        0.4628380093
  H        -1.4693599961        6.5145426319        0.4576856818
  H        -2.6637469603        7.2005568069        0.4588446957
  O        -0.0060100257        5.2053320936        2.2984105007
  H         0.7906719402        5.2032838859        2.2960140019
  H        -0.4036292765        5.8963878830        2.3015250277
  O        -2.2679299425        6.5123446693        4.1453043451
  H        -1.4716993993        6.5046683296        4.1335122146
  H        -2.6625354861        7.2046803866        4.1342056419
  O        -0.0032568853        5.2012041868        5.9788002035
  H         0.7942626461        5.2151671897        5.9719688575
  H        -0.4100329227        5.8881026059        5.9792078671
  O        -2.2680138870        6.5106375545        7.8175474025
  H        -1.4707991466        6.5074639745        7.8145471251
  H        -2.6628000056        7.2034983649        7.8160160464
  O        -0.0032785164        5.2027002003        9.6491498222
  H         0.7939843489        5.2131501329        9.6574972902
  H        -0.4097022759        5.8889778527        9.6568634107
  O        -2.2676759539        6.5116707583       11.5032079951
  H        -1.4714632214        6.5058572015       11.4914516298
  H        -2.6633634130        7.2036940938       11.4873333643
  O        -0.0050011263        5.2081154471       13.3278381150
  H         0.7904500551        5.1998695939       13.3374964284
  H        -0.4048254753        5.8966674061       13.3333021982
  O         4.5087938930        2.5987090525        0.4625238290
  H         5.3059685354        2.5931683652        0.4584805492
  H         4.1147437131        3.2917541935        0.4580388790
  O         6.7725429197        1.2923777204        2.2968078350
  H         7.5690737506        1.2935859508        2.2995668709
  H         6.3706788562        1.9807647469        2.2994642493
  O         4.5072263264        2.5984324182        4.1425047109
  H         5.3050116325        2.5915813097        4.1356905489
  H         4.1160875884        3.2931935887        4.1346055249
  O         6.7727822066        1.2922081184        5.9773431296
  H         7.5695976180        1.2955129250        5.9763145389
  H         6.3696490801        1.9796896130        5.9763878599
  O         4.5096837275        2.5973204382        7.7960542370
  H         5.3072142410        2.5968785846        7.8282532903
  H         4.1125274079        3.2892706612        7.8237844448
  O         6.7725689342        1.2912448516        9.6626307129
  H         7.5696984167        1.2960719156        9.6496871792
  H         6.3699422784        1.9793438899        9.6513674471
  O         4.5104367790        2.5977451248       11.5021401253
  H         5.3073425968        2.5976861007       11.4921514973
  H         4.1114067136        3.2882577514       11.4874495540
  O         6.7726148022        1.2909922752       13.3331320601
  H         7.5699623151        1.2970922694       13.3320926127
  H         6.3695785948        1.9790048368       13.3332935602
  O         2.2500673723        6.5107896261        0.4652940013
  H         3.0469383058        6.5066879251        0.4548065185
  H         1.8552618632        7.2040693233        0.4595011904
  O         4.5145771801        5.2049077239        2.2982374440
  H         5.3109432664        5.2086358215        2.2971231148
  H         4.1095345025        5.8912435949        2.3008574257
  O         2.2506805916        6.5115543752        4.1418042152
  H         3.0472564492        6.5071324583        4.1368963623
  H         1.8538622369        7.2024622307        4.1343495624
  O         4.5138098323        5.2047294391        5.9909910885
  H         5.3103939660        5.2080712188        5.9677917528
  H         4.1105500247        5.8922724349        5.9712940727
  O         2.2517674734        6.5099622273        7.8208966384
  H         3.0491709234        6.5121666558        7.8152507966
  H         1.8513299459        7.1992542176        7.8114842927
  O         4.5143261314        5.2039814848        9.6508272746
  H         5.3110505551        5.2100890868        9.6559629768
  H         4.1096868400        5.8909406755        9.6570177181
  O         2.2507867343        6.5107266477       11.4802546325
  H         3.0471991209        6.5079368876       11.5016507933
  H         1.8539533466        7.2022134951       11.4996582043
  O         4.5134474664        5.2037086863       13.3354656504
  H         5.3105386150        5.2086457378       13.3289319361
  H         4.1112177748        5.8925438272       13.3327343122
      96
 i =        2, E =      -373.5381210948
  O        -0.0980242247        2.4725379771        0.4696171624
  H         0.9047247039        2.5945733561        0.4478733314
  H        -0.4506162726        3.4251515711        0.4594773879
  O         2.1885362746        1.1479407349        2.3148140198
  H         3.1940328336        1.3279538746        2.3251281804
  H         1.7953295936        2.0801581931        2.2585233888
  O        -0.1053591290        2.4763604502        4.1402315448
  H         0.8975177679        2.5748694283        4.1338650232
  H        -0.4362778044        3.4426603436        4.1406021120
  O         2.1918048479        1.1492532755        6.0044378133
  H         3.1936232500        1.3297268947        5.9649388075
  H         1.7900534569        2.0747751810        5.9577677035
  O        -0.1009012521        2.4618028323        7.7995601493
  H         0.9071648800        2.6063659946        7.8294079807
  H        -0.4497002447        3.4263640586        7.8226360623
  O         2.1797153151        1.1550863431        9.6665747931
  H         3.1841458704        1.3028989847        9.6449470138
  H         1.8092354273        2.0989452043        9.6519037050
  O        -0.0983947777        2.4643623089       11.5429624413
  H         0.9093897182        2.6091051578       11.4627110572
  H        -0.4535391080        3.4221012776       11.4734251837
  O         2.1907608639        1.1607005304       13.3139541148
  H         3.1888764853        1.3138882065       13.3245658153
  H         1.7962006424        2.0845905257       13.3592335755
  O        -2.3618902593        6.3572812163        0.4909533601
  H        -1.3428710153        6.5403116614        0.4416400572
  H        -2.7137613645        7.3306350611        0.4476927371
  O        -0.0794608614        5.0639382429        2.2957856291
  H         0.9263537236        5.2191181321        2.2857170046
  H        -0.4480924281        6.0121031253        2.3130190291
  O        -2.3631656936        6.3874059786        4.2138082050
  H        -1.3598242078        6.4925491390        4.0976142153
  H        -2.6975237822        7.3525692621        4.1015569142
  O        -0.0617919269        5.0442653403        5.9971140575
  H         0.9476018003        5.2823606810        5.9473318693
  H        -0.4873998273        5.9663859031        5.9838725032
  O        -2.3620717755        6.3795452396        7.8335410230
  H        -1.3539807884        6.5069029296        7.8053834990
  H        -2.7010269586        7.3463293848        7.8126055553
  O        -0.0629645399        5.0501339718        9.6009024380
  H         0.9446847223        5.2726729552        9.6821278493
  H        -0.4832210045        5.9713572770        9.6791086236
  O        -2.3613129251        6.3844422005       11.5861914948
  H        -1.3577310549        6.4994918842       11.4584077603
  H        -2.7025153715        7.3469998805       11.4383290254
  O        -0.0764627970        5.0747921084       13.2828263385
  H         0.9221606675        5.2059401898       13.3692365860
  H        -0.4487069812        6.0129932813       13.3485565592
  O         4.4130556714        2.4702983796        0.4884303814
  H         5.4204380385        2.5855992115        0.4463537022
  H         4.0801024684        3.4389061174        0.4441956447
  O         6.7054391013        1.1488682693        2.2798857476
  H         7.7098588774        1.3241598817        2.3075846714
  H         6.3151267735        2.0834202207        2.3070896298
  O         4.4057868756        2.4698546155        4.1848024779
  H         5.4159225442        2.5756208118        4.1158729191
  H         4.0871487338        3.4474845746        4.1105615709
  O         6.7076030450        1.1477055496        5.9830148464
  H         7.7129124720        1.3339150167        5.9727661439
  H         6.3088415600        2.0772049600        5.9734766801
  O         4.4187120865        2.4637121475        7.6194891749
  H         5.4277306197        2.6056776291        7.9283941945
  H         4.0669694606        3.4251423131        7.9044588100
  O         6.7067581128        1.1446609521        9.7344002454
  H         7.7137642146        1.3353707687        9.6096916054
  H         6.3094575631        2.0769684112        9.6178993077
  O         4.4222391783        2.4650096805       11.5750972742
  H         5.4285437607        2.6110680633       11.4647407118
  H         4.0617185742        3.4191717012       11.4418620801
  O         6.7075712210        1.1420591455       13.3365188172
  H         7.7156169359        1.3413421029       13.3286232986
  H         6.3069356772        2.0734606522       13.3345963488
  O         2.1554229059        6.3802123616        0.5139390717
  H         3.1621486345        6.5030898169        0.4213175626
  H         1.8178832850        7.3487067292        0.4453718359
  O         4.4521059231        5.0598853406        2.2942836808
  H         5.4553133639        5.2503370160        2.2915181997
  H         4.0450119039        5.9837771710        2.3103060678
  O         2.1587817571        6.3830877429        4.1787790538
  H         3.1632942635        6.5064389002        4.1235042502
  H         1.8115307900        7.3409683107        4.1108625006
  O         4.4488773392        5.0607825698        6.1179221006
  H         5.4533279976        5.2453103582        5.8965482691
  H         4.0489479566        5.9899766120        5.9134812608
  O         2.1655796082        6.3750175201        7.8657215856
  H         3.1733163052        6.5330887447        7.8005895448
  H         1.7966671472        7.3234227339        7.7821278582
  O         4.4521114380        5.0556173332        9.6179360035
  H         5.4573792402        5.2567669663        9.6700192810
  H         4.0432434950        5.9809840030        9.6754934710
  O         2.1596522049        6.3797961809       11.3591080590
  H         3.1644592638        6.5104747472       11.5673950199
  H         1.8103184630        7.3392739201       11.5562322593
  O         4.4471573316        5.0560074794       13.3622398013
  H         5.4543768960        5.2477575184       13.3062627246
  H         4.0515691101        5.9911247864       13.3255535379
      96
 i =        3, E =      -373.5789788878
  O        -0.0871304488        2.4871783169        0.4677303249
  H         0.8762736346        2.6050509236        0.4497718816
  H        -0.4302782160        3.3986561568        0.4592134297
  O         2.1969049009        1.1665500369        2.3116784575
  H         3.1606523451        1.3297945268        2.3194870670
  H         1.8177944089        2.0606978272        2.2672585459
  O        -0.0928088637        2.4904460299        4.1396020158
  H         0.8711125136        2.5907215355        4.1349454202
  H        -0.4200752237        3.4110729965        4.1403174744
  O         2.1986827634        1.1668722537        5.9984655191
  H         3.1595625913        1.3315203180        5.9664100077
  H         1.8140655227        2.0569802648        5.9609390395
  O        -0.0878977012        2.4817380786        7.8053460615
  H         0.8786478360        2.6117302065        7.8266159977
  H        -0.4324067081        3.3993605484        7.8202328181
  O         2.1893208902        1.1713504627        9.6638124159
  H         3.1530596018        1.3114793270        9.6472765707
  H         1.8282776137        2.0744751332        9.6525750246
  O        -0.0854746899        2.4842555982       11.5280470702
  H         0.8804659082        2.6136236100       11.4703518046
  H        -0.4347563217        3.3965796796       11.4793130422
  O         2.1969035282        1.1737919744       13.3170285773
  H         3.1559771281        1.3222958794       13.3276879489
  H         1.8202793362        2.0642324390       13.3550460767
  O        -2.3458386596        6.3852980761        0.4783586807
  H        -1.3723606450        6.5363286911        0.4481240413
  H        -2.6978654854        7.3060175349        0.4531539170
  O        -0.0690305141        5.0823412969        2.2965447431
  H         0.8955761676        5.2268416203        2.2892103504
  H        -0.4303209614        5.9875265461        2.3100214062
  O        -2.3493829625        6.4042013390        4.1919192124
  H        -1.3864076886        6.5053645122        4.1060277355
  H        -2.6828187849        7.3209179565        4.1134142551
  O        -0.0543847125        5.0697219706        5.9888941884
  H         0.9100881266        5.2688057562        5.9568063007
  H        -0.4597244898        5.9559780041        5.9827734864
  O        -2.3478636557        6.3981245520        7.8299158780
  H        -1.3808286566        6.5166893878        7.8078021793
  H        -2.6847775216        7.3171429343        7.8139229147
  O        -0.0556719251        5.0738660356        9.6188022076
  H         0.9078479394        5.2622804755        9.6710683543
  H        -0.4569216112        5.9589191550        9.6736479948
  O        -2.3470392716        6.4032557070       11.5560686025
  H        -1.3843303345        6.5100052513       11.4669223769
  H        -2.6878512556        7.3162006879       11.4566391255
  O        -0.0677022807        5.0888489894       13.2921832051
  H         0.8916071355        5.2182099429       13.3625703428
  H        -0.4291862464        5.9881512461       13.3475437958
  O         4.4268604471        2.4876466190        0.4811448381
  H         5.3935708499        2.5974429733        0.4489024877
  H         4.0954618694        3.4082558481        0.4486843909
  O         6.7139425250        1.1673893862        2.2845969126
  H         7.6769468328        1.3270979329        2.3054682816
  H         6.3369027719        2.0634223042        2.3059256893
  O         4.4218679258        2.4881971475        4.1677658772
  H         5.3905857925        2.5896747519        4.1212916423
  H         4.0988123435        3.4131658252        4.1198249337
  O         6.7158738108        1.1664355350        5.9810522324
  H         7.6792275921        1.3342159513        5.9737764727
  H         6.3321551793        2.0588051096        5.9742366601
  O         4.4404036894        2.4964679858        7.7436091813
  H         5.4009860441        2.6016838677        7.8679050745
  H         4.0765678849        3.3956072910        7.8477972337
  O         6.7159321871        1.1688902070        9.7076534920
  H         7.6793634645        1.3319367473        9.6249872562
  H         6.3310214443        2.0605952607        9.6258232032
  O         4.4353589394        2.4860031958       11.5477091686
  H         5.3997458669        2.6146286966       11.4732454029
  H         4.0801531288        3.3936582285       11.4583122032
  O         6.7162514639        1.1626416193       13.3362654666
  H         7.6812690282        1.3377903358       13.3299072968
  H         6.3301812865        2.0557945751       13.3340621848
  O         2.1696310200        6.3991882063        0.4973634282
  H         3.1350897782        6.5127958660        0.4301288183
  H         1.8329874595        7.3186826978        0.4510194657
  O         4.4590724157        5.0781613423        2.2963016657
  H         5.4207673649        5.2498454393        2.2933880396
  H         4.0701607204        5.9671938958        2.3082215139
  O         2.1711932594        6.3995766745        4.1686426578
  H         3.1355329728        6.5164453720        4.1265316826
  H         1.8299339762        7.3130512651        4.1180377123
  O         4.4604342848        5.0880866579        6.0566902383
  H         5.4197339738        5.2392935183        5.9318261153
  H         4.0680734302        5.9718738473        5.9364704127
  O         2.1767998264        6.3949175462        7.8502997960
  H         3.1426564436        6.5341363669        7.8049247864
  H         1.8181012510        7.3010326645        7.7915258577
  O         4.4600857817        5.0751273928        9.6296919325
  H         5.4226729781        5.2526983135        9.6647596796
  H         4.0676914939        5.9637266380        9.6705584010
  O         2.1765804918        6.4040333001       11.4172871931
  H         3.1377154909        6.5145324926       11.5410490834
  H         1.8240292440        7.3103468024       11.5286655537
  O         4.4557330783        5.0778614644       13.3526333575
  H         5.4201866051        5.2460629339       13.3144041590
  H         4.0738360913        5.9737611320       13.3269422622
      96
 i =        4, E =      -373.6073243931
  O        -0.0971485236        2.4735047112        0.4696530542
  H         0.8736869398        2.6145430065        0.4481666591
  H        -0.4194322576        3.4038243433        0.4581753579
  O         2.1907086111        1.1519038763        2.3140483611
  H         3.1597239194        1.3405715780        2.3189681328
  H         1.8271108921        2.0629484000        2.2657036624
  O        -0.1029530893        2.4770014337        4.1396551182
  H         0.8688631387        2.6010087495        4.1350366741
  H        -0.4099870978        3.4150690611        4.1406206275
  O         2.1919562043        1.1516869273        6.0024071880
  H         3.1583010433        1.3428955309        5.9638881203
  H         1.8234807731        2.0596854002        5.9580329183
  O        -0.0967618914        2.4704995430        7.8052557691
  H         0.8759082406        2.6194007889        7.8278963329
  H        -0.4234928213        3.4039484589        7.8204505207
  O         2.1825610750        1.1561118004        9.6652776568
  H         3.1525568103        1.3234080060        9.6464792579
  H         1.8372303097        2.0759535233        9.6518737260
  O        -0.0940778373        2.4730669262       11.5307926364
  H         0.8777426178        2.6213416216       11.4677203581
  H        -0.4249343513        3.4018335889       11.4773369745
  O         2.1892673847        1.1569578992       13.3134137962
  H         3.1551310355        1.3358313762       13.3301007707
  H         1.8305209178        2.0668199492       13.3582751077
  O        -2.3524926745        6.3774758214        0.4773878256
  H        -1.3750561618        6.5407018358        0.4482594261
  H        -2.6901252104        7.3107616003        0.4537385122
  O        -0.0751682317        5.0682573696        2.2961339924
  H         0.8953440083        5.2387772577        2.2899535204
  H        -0.4220820700        5.9889091429        2.3104908046
  O        -2.3587690423        6.3918328245        4.1973076613
  H        -1.3890172422        6.5147560382        4.1006584826
  H        -2.6733247601        7.3244865846        4.1116794500
  O        -0.0598143862        5.0575084225        5.9879883104
  H         0.9075221483        5.2751784670        5.9578593695
  H        -0.4500146394        5.9605138083        5.9823911130
  O        -2.3559843899        6.3866117905        7.8327323802
  H        -1.3823547005        6.5258654458        7.8066676428
  H        -2.6752398826        7.3213302763        7.8132439942
  O        -0.0615532669        5.0608684410        9.6178007042
  H         0.9054210848        5.2698133409        9.6703840017
  H        -0.4475288772        5.9626896044        9.6765486256
  O        -2.3560268750        6.3914871406       11.5597564525
  H        -1.3869063721        6.5191777757       11.4616759968
  H        -2.6787351822        7.3195801614       11.4551613778
  O        -0.0747814523        5.0728616155       13.2834729467
  H         0.8912608411        5.2316139073       13.3675001740
  H        -0.4198435546        5.9896318647       13.3536345306
  O         4.4177573124        2.4756402984        0.4842864403
  H         5.3914004433        2.6065374166        0.4465332588
  H         4.1050429210        3.4123328219        0.4475610367
  O         6.7076456659        1.1528331598        2.2828675054
  H         7.6760986198        1.3383368803        2.3065521914
  H         6.3458679935        2.0657274033        2.3077697976
  O         4.4131781641        2.4767634251        4.1679948953
  H         5.3886030701        2.5989376866        4.1191607022
  H         4.1071802503        3.4159474967        4.1195945185
  O         6.7098035526        1.1518688211        5.9814238866
  H         7.6781862182        1.3448982528        5.9734529009
  H         6.3413668915        2.0614044084        5.9739038601
  O         4.4329292014        2.4859453331        7.7685282717
  H         5.3970669789        2.6095184122        7.8596963931
  H         4.0877791252        3.3995306409        7.8372875756
  O         6.7098719535        1.1572561116        9.7102690815
  H         7.6774162560        1.3411325828        9.6240349808
  H         6.3400311172        2.0646954640        9.6207731253
  O         4.4269741723        2.4750532341       11.5501963163
  H         5.3970766004        2.6225504512       11.4697715970
  H         4.0898205590        3.3984645378       11.4569883173
  O         6.7106199897        1.1485154224       13.3375292155
  H         7.6800419541        1.3467547512       13.3299493524
  H         6.3390332781        2.0580558813       13.3336495878
  O         2.1609465075        6.3876892806        0.4997824154
  H         3.1327363809        6.5214929347        0.4269598608
  H         1.8420085090        7.3225752837        0.4498896929
  O         4.4526123392        5.0631387962        2.2969416339
  H         5.4194153756        5.2604886011        2.2938032570
  H         4.0798432101        5.9702164727        2.3089394876
  O         2.1618766452        6.3867898002        4.1731400178
  H         3.1331646995        6.5256507959        4.1236266632
  H         1.8401149340        7.3174908852        4.1162754272
  O         4.4548204791        5.0763253557        6.0530410367
  H         5.4174403009        5.2490224797        5.9348753757
  H         4.0770162773        5.9745422537        5.9336928296
  O         2.1677494723        6.3833570855        7.8526078259
  H         3.1393919212        6.5409593212        7.8026754081
  H         1.8284506544        7.3069300026        7.7900819440
  O         4.4544530614        5.0601547973        9.6288493925
  H         5.4213893919        5.2620086043        9.6654633847
  H         4.0766703406        5.9654632026        9.6724825313
  O         2.1690044236        6.3934544545       11.4212642700
  H         3.1349554223        6.5224851633       11.5426718830
  H         1.8337388364        7.3141293473       11.5270858168
  O         4.4495221076        5.0649811765       13.3535437543
  H         5.4186083358        5.2556516250       13.3144181130
  H         4.0827994811        5.9773474676       13.3252546322
      96
 i =        5, E =      -373.6255013160
  O        -0.1105502986        2.4586695913        0.4721522106
  H         0.8623252259        2.6284311733        0.4457052815
  H        -0.3985544086        3.4074418893        0.4563450344
  O         2.1855992972        1.1335403198        2.3171055209
  H         3.1519845712        1.3590709424        2.3167754798
  H         1.8450451015        2.0590667709        2.2653685076
  O        -0.1166503305        2.4620819394        4.1393679135
  H         0.8581813732        2.6173148187        4.1356208669
  H        -0.3909929548        3.4156477010        4.1412274888
  O         2.1859535915        1.1335118208        6.0066017522
  H         3.1501962637        1.3611750012        5.9609720051
  H         1.8413306780        2.0575903315        5.9538505025
  O        -0.1093384135        2.4589443629        7.8073469899
  H         0.8626677362        2.6307737695        7.8293009703
  H        -0.4040426802        3.4064880310        7.8198532139
  O         2.1769114778        1.1369260286        9.6665354813
  H         3.1461962835        1.3441837520        9.6459475929
  H         1.8536866643        2.0701878310        9.6510854202
  O        -0.1058399670        2.4615956257       11.5305634747
  H         0.8647899003        2.6328965132       11.4651413277
  H        -0.4036990121        3.4057742484       11.4756208501
  O         2.1822184462        1.1360581213       13.3099649326
  H         3.1487743906        1.3579464826       13.3345766912
  H         1.8482225808        2.0640376131       13.3626659517
  O        -2.3617603022        6.3703997345        0.4741296312
  H        -1.3898380286        6.5485636786        0.4494596586
  H        -2.6698471047        7.3132193303        0.4552763052
  O        -0.0801607483        5.0508431886        2.2955277786
  H         0.8889556881        5.2602112752        2.2925108604
  H        -0.4063020079        5.9831378990        2.3106888563
  O        -2.3714749777        6.3783955712        4.1992535319
  H        -1.4010911505        6.5293554441        4.0930640902
  H        -2.6541480695        7.3247124848        4.1127542556
  O        -0.0649502146        5.0426180503        5.9834997391
  H         0.8954094529        5.2861508584        5.9628294899
  H        -0.4289088185        5.9612842882        5.9817834684
  O        -2.3663191055        6.3746978030        7.8366519602
  H        -1.3926851160        6.5404023510        7.8052252829
  H        -2.6550533200        7.3229250361        7.8126616432
  O        -0.0675677336        5.0447560384        9.6205510639
  H         0.8935147959        5.2819428173        9.6668876601
  H        -0.4270797085        5.9625771237        9.6806875434
  O        -2.3687774349        6.3784029590       11.5590328776
  H        -1.3995842460        6.5335417586       11.4531448562
  H        -2.6589538189        7.3200465324       11.4565410786
  O        -0.0803882070        5.0532188850       13.2751232880
  H         0.8859859815        5.2548951920       13.3725981203
  H        -0.4041476835        5.9835960291       13.3630568354
  O         4.4052989544        2.4627259593        0.4867409503
  H         5.3796996178        2.6207063699        0.4430786731
  H         4.1245954350        3.4134583034        0.4474176795
  O         6.7021743716        1.1348746795        2.2823455423
  H         7.6684325224        1.3573473095        2.3076547268
  H         6.3631913784        2.0622244131        2.3106556894
  O         4.4014060523        2.4640460294        4.1634713341
  H         5.3769458148        2.6143394438        4.1170033094
  H         4.1253950957        3.4146445934        4.1220447801
  O         6.7047042410        1.1336743360        5.9814193997
  H         7.6700084609        1.3629580249        5.9733930538
  H         6.3594665750        2.0584996057        5.9736531285
  O         4.4172596205        2.4654276464        7.8068617409
  H         5.3798874484        2.6294755225        7.8480045013
  H         4.1192000188        3.4023571599        7.8221695947
  O         6.7037600131        1.1436016779        9.7089020595
  H         7.6667725307        1.3582076915        9.6253521827
  H         6.3594714124        2.0648508222        9.6135541985
  O         4.4149508421        2.4632652622       11.5473759377
  H         5.3837229663        2.6346675053       11.4652289916
  H         4.1117810062        3.4020609053       11.4588709529
  O         6.7059877547        1.1305230167       13.3400801311
  H         7.6709735225        1.3616752121       13.3305576825
  H         6.3573433669        2.0543675681       13.3326164694
  O         2.1488249445        6.3753035769        0.4986751563