 DBCSR| CPU Multiplication driver                                           BLAS (U)
 DBCSR| Multrec recursion limit                                              512 (U)
 DBCSR| Multiplication stack size                                           1000 (D)
 DBCSR| Maximum elements for images                                    UNLIMITED (U)
 DBCSR| Multiplicative factor virtual images                                   1 (U)
 DBCSR| Use multiplication densification                                       T (D)
 DBCSR| Multiplication size stacks                                             3 (U)
 DBCSR| Use memory pool for CPU allocation                                     F (U)
 DBCSR| OMP: Current number of threads                                         8
 DBCSR| OMP: Max number of threads                                             8
 DBCSR| Split modifier for TAS multiplication algorithm                  1.0E+00 (U)


  **** **** ******  **  PROGRAM STARTED AT               2026-02-16 22:19:17.434
 ***** ** ***  *** **   PROGRAM STARTED ON                 MacBook-Air-950.local
 **    ****   ******    PROGRAM STARTED BY                       mackenziehenley
 ***** **    ** ** **   PROGRAM PROCESS ID                                 70947
  **** **  *******  **  PROGRAM STARTED IN /Users/mackenziehenley/cp2k/D2O_ice/C
                                           P2K

 CP2K| version string:                                       CP2K version 2025.1
 CP2K| source code revision number:                                             
 CP2K| cp2kflags: omp libint fftw3 libxc no_statm_access                        
 CP2K| is freely available from                            https://www.cp2k.org/
 CP2K| Program compiled at                                   2025-01-01 12:26:53
 CP2K| Program compiled on                                                      
 CP2K| Program compiled for                                                arm64
 CP2K| Data directory path      /opt/homebrew/Cellar/cp2k/2025.1/share/cp2k/data
 CP2K| Input file name                                            ice_d2o_96.inp

 GLOBAL| Force Environment number                                              1
 GLOBAL| Basis set file name                                           BASIS_SET
 GLOBAL| Potential file name                                           POTENTIAL
 GLOBAL| MM Potential file name                                     MM_POTENTIAL
 GLOBAL| Coordinate file name                                 ice_d20relaxed.xyz
 GLOBAL| Method name                                                        CP2K
 GLOBAL| Project name                                           Titan_Ice_D2O_96
 GLOBAL| Run type                                                             MD
 GLOBAL| FFT library                                                       FFTW3
 GLOBAL| Diagonalization library                                       ScaLAPACK
 GLOBAL| DGEMM library                                                      BLAS
 GLOBAL| Orthonormality check for eigenvectors                          DISABLED
 GLOBAL| Matrix multiplication library                                 ScaLAPACK
 GLOBAL| All-to-all communication in single precision                          F
 GLOBAL| FFTs using library dependent lengths                                  F
 GLOBAL| Grid backend                                                       AUTO
 GLOBAL| Global print level                                                  LOW
 GLOBAL| MPI I/O enabled                                                       T
 GLOBAL| Total number of message passing processes                             1
 GLOBAL| Number of threads for this process                                    8
 GLOBAL| This output is from process                                           0
 GLOBAL| OpenMP stack size per thread (OMP_STACKSIZE)                    default
 GLOBAL| CPU model name                                                  UNKNOWN
 GLOBAL| CPUID                                                              2000

 MEMORY| system memory details [Kb]
 MEMORY|                        rank 0           min           max       average
 MEMORY| MemTotal                    0             0             0             0
 MEMORY| MemFree                     0             0             0             0
 MEMORY| Buffers                     0             0             0             0
 MEMORY| Cached                      0             0             0             0
 MEMORY| Slab                        0             0             0             0
 MEMORY| SReclaimable                0             0             0             0
 MEMORY| MemLikelyFree               0             0             0             0


 GENERATE|  Preliminary Number of Bonds generated:                             0
 GENERATE|  Achieved consistency in connectivity generation.

 *** WARNING in qs_kind_types.F:2141 :: Information provided in the input ***
 *** file regarding BASIS for KIND <H> will be ignored!                   ***



              #####   #####        # #     # ######  ######   #####  
             #     # #     #      #  ##    # #     # #     # #     # 
             #     # #           #   # #   # #     # #     # #     # 
             #     #  #####     #    #  #  # #     # #     # #     # 
             #   # #       #   #     #   # # #     # #     # #     # 
             #    #  #     #  #      #    ## #     # #     # #     # 
              #### #  #####  #       #     # ######  ######   #####  
                                                                     
                              T. Laino and J. Hutter                 
                                                                     
                                   2008 - 2015                       


 SEMIEMPIRICAL|                             Coulomb Integral cutoff/taper values
 SEMIEMPIRICAL| Cutoff [a.u.]                                             22.677
 SEMIEMPIRICAL| Taper  [a.u.]                                             22.677
 SEMIEMPIRICAL| Range  [a.u.]                                              0.000


 SEMIEMPIRICAL|                     Exchange Integral cutoff/taper was redefined
 SEMIEMPIRICAL| Default value [a.u.]                                      22.677
 SEMIEMPIRICAL| New value [a.u.]                                           6.950


 SEMIEMPIRICAL|                            Exchange Integral cutoff/taper values
 SEMIEMPIRICAL| Cutoff [a.u.]                                              6.950
 SEMIEMPIRICAL| Taper  [a.u.]                                              6.950
 SEMIEMPIRICAL| Range  [a.u.]                                              0.000



 TOTAL NUMBERS AND MAXIMUM NUMBERS

  Total number of            - Atomic kinds:                                   2
                             - Atoms:                                         96
                             - Shell sets:                                   128
                             - Shells:                                       128
                             - Primitive Cartesian functions:                768
                             - Cartesian basis functions:                    192
                             - Spherical basis functions:                    192

  Maximum angular momentum of the orbital basis functions:                     1


 SCF PARAMETERS         Density guess:                                    ATOMIC
                        --------------------------------------------------------
                        max_scf:                                              50
                        max_scf_history:                                       0
                        max_diis:                                              4
                        --------------------------------------------------------
                        eps_scf:                                        1.00E-04
                        eps_scf_history:                                0.00E+00
                        eps_diis:                                       1.00E-01
                        eps_eigval:                                     1.00E-05
                        --------------------------------------------------------
                        level_shift [a.u.]:                             0.000000
                        --------------------------------------------------------
                        No outer SCF

 MD_PAR| Molecular dynamics protocol (MD input parameters)
 MD_PAR| Ensemble type                                                       NVT
 MD_PAR| Number of time steps                                               1000
 MD_PAR| Time step [fs]                                                 0.500000
 MD_PAR| Temperature [K]                                               94.000000
 MD_PAR| Temperature tolerance [K]                                      0.000000
 MD_PAR| Print MD information every                                    1 step(s)
 MD_PAR| File type   Print frequency [steps]                          File names
 MD_PAR| Coordinates          2                       Titan_Ice_D2O_96-pos-1.xyz
 MD_PAR| Velocities           1                       Titan_Ice_D2O_96-vel-1.xyz
 MD_PAR| Energies             1                          Titan_Ice_D2O_96-1.ener
 MD_PAR| Dump                20                       Titan_Ice_D2O_96-1.restart

 ROT| Rotational analysis information
 ROT| Principal axes and moments of inertia [a.u.]
 ROT|                           1                   2                   3
 ROT| Eigenvalues      4.94257631620E+07   8.55211219408E+07   1.13465095314E+08
 ROT|      x              0.121235163869     -0.857493151153     -0.500007530710
 ROT|      y             -0.069997746162      0.495083676059     -0.866021055883
 ROT|      z              0.990152690535      0.139991604838     -0.000001037335
 ROT| Number of rotovibrational vectors                                        6

 DOF| Calculation of degrees of freedom
 DOF| Number of atoms                                                         96
 DOF| Number of intramolecular constraints                                     0
 DOF| Number of intermolecular constraints                                     0
 DOF| Invariants (translations + rotations)                                    3
 DOF| Degrees of freedom                                                     285

 DOF| Restraints information
 DOF| Number of intramolecular restraints                                      0
 DOF| Number of intermolecular restraints                                      0

 THERMOSTAT| Thermostat information for PARTICLES
 THERMOSTAT| Type of thermostat            Canonical Sampling/Velocity Rescaling
 THERMOSTAT| CSVR time constant [fs]                                  100.000000
 THERMOSTAT| Initial kinetic energy                           0.000000000000E+00
 THERMOSTAT| End of thermostat information for PARTICLES

 MD_VEL| Velocities initialization
 MD_VEL| Initial temperature [K]                                       94.000000
 MD_VEL| COM velocity             0.0000000000     0.0000000000     0.0000000000

 Number of electrons:                                                        256
 Number of occupied orbitals:                                                128
 Number of molecular orbitals:                                               128

 Number of orbital functions:                                                192
 Number of independent orbital functions:                                    192

 Extrapolation method: initial_guess


 SCF WAVEFUNCTION OPTIMIZATION

  ----------------------------------- OT ---------------------------------------
  Minimizer      : DIIS                : direct inversion
                                         in the iterative subspace
                                         using   7 DIIS vectors
                                         safer DIIS on
  Preconditioner : FULL_SINGLE_INVERSE : inversion of 
                                         H + eS - 2*(Sc)(c^T*H*c+const)(Sc)^T
  Precond_solver : DEFAULT
  stepsize       :    0.08000000                  energy_gap     :    0.08000000
  eps_taylor     :   0.10000E-15                  max_taylor     :             4
  ----------------------------------- OT ---------------------------------------

  Step     Update method      Time    Convergence         Total energy    Change
  ------------------------------------------------------------------------------
     1 OT DIIS     0.80E-01    1.1     0.12138477      -308.1354209613 -3.08E+02
     2 OT DIIS     0.80E-01    0.2     0.17687130      -313.9138823126 -5.78E+00
     3 OT DIIS     0.80E-01    0.2     0.07697772      -326.0641761238 -1.22E+01
     4 OT DIIS     0.80E-01    0.2     0.07323700      -331.8672698225 -5.80E+00
     5 OT DIIS     0.80E-01    0.2     0.06405235      -336.9243663727 -5.06E+00
     6 OT DIIS     0.80E-01    0.2     0.05691922      -343.0958316858 -6.17E+00
     7 OT DIIS     0.80E-01    0.2     0.04934727      -346.8289258534 -3.73E+00
     8 OT DIIS     0.80E-01    0.2     0.04579551      -350.4535754861 -3.62E+00
     9 OT DIIS     0.80E-01    0.2     0.03835373      -355.0120768734 -4.56E+00
    10 OT DIIS     0.80E-01    0.2     0.03502821      -358.7852984850 -3.77E+00
    11 OT DIIS     0.80E-01    0.2     0.02885013      -362.3014651332 -3.52E+00
    12 OT DIIS     0.80E-01    0.2     0.02319457      -364.8370665809 -2.54E+00
    13 OT DIIS     0.80E-01    0.2     0.02000025      -366.5010541063 -1.66E+00
    14 OT DIIS     0.80E-01    0.2     0.01667756      -367.8283110726 -1.33E+00
    15 OT DIIS     0.80E-01    0.2     0.01554941      -368.5945158001 -7.66E-01
    16 OT DIIS     0.80E-01    0.2     0.01293465      -369.4037146347 -8.09E-01
    17 OT DIIS     0.80E-01    0.2     0.01314214      -369.8643098649 -4.61E-01
    18 OT DIIS     0.80E-01    0.2     0.01022313      -370.3952108145 -5.31E-01
    19 OT DIIS     0.80E-01    0.2     0.00983240      -370.6892192813 -2.94E-01
    20 OT DIIS     0.80E-01    0.2     0.00896614      -370.9589232832 -2.70E-01
    21 OT DIIS     0.80E-01    0.2     0.00818973      -371.2098147439 -2.51E-01
    22 OT DIIS     0.80E-01    0.2     0.00730943      -371.4909901767 -2.81E-01
    23 OT DIIS     0.80E-01    0.2     0.00551197      -371.7921054654 -3.01E-01
    24 OT DIIS     0.80E-01    0.2     0.00482811      -371.8644301686 -7.23E-02
    25 OT DIIS     0.80E-01    0.2     0.00400118      -371.9735710617 -1.09E-01
    26 OT DIIS     0.80E-01    0.2     0.00407445      -371.9613875506  1.22E-02
    27 OT DIIS     0.80E-01    0.2     0.00259444      -372.0305105101 -6.91E-02
    28 OT DIIS     0.80E-01    0.2     0.00214923      -372.0570040254 -2.65E-02
    29 OT DIIS     0.80E-01    0.2     0.00188754      -372.0764056616 -1.94E-02
    30 OT DIIS     0.80E-01    0.3     0.00157280      -372.0998145135 -2.34E-02
    31 OT DIIS     0.80E-01    0.2     0.00135976      -372.1140277005 -1.42E-02
    32 OT DIIS     0.80E-01    0.2     0.00124652      -372.1249234980 -1.09E-02
    33 OT DIIS     0.80E-01    0.2     0.00114106      -372.1335484573 -8.62E-03
    34 OT DIIS     0.80E-01    0.2     0.00100176      -372.1457119665 -1.22E-02
    35 OT DIIS     0.80E-01    0.2     0.00090702      -372.1545950775 -8.88E-03
    36 OT DIIS     0.80E-01    0.2     0.00082943      -372.1608596308 -6.26E-03
    37 OT DIIS     0.80E-01    0.2     0.00074949      -372.1670015812 -6.14E-03
    38 OT DIIS     0.80E-01    0.2     0.00067150      -372.1717237028 -4.72E-03
    39 OT DIIS     0.80E-01    0.2     0.00060800      -372.1763344859 -4.61E-03
    40 OT DIIS     0.80E-01    0.2     0.00056067      -372.1797607869 -3.43E-03
    41 OT DIIS     0.80E-01    0.2     0.00052661      -372.1818080237 -2.05E-03
    42 OT DIIS     0.80E-01    0.2     0.00048728      -372.1842636408 -2.46E-03
    43 OT DIIS     0.80E-01    0.2     0.00044964      -372.1870115356 -2.75E-03
    44 OT DIIS     0.80E-01    0.2     0.00043099      -372.1883692357 -1.36E-03
    45 OT DIIS     0.80E-01    0.2     0.00040822      -372.1899158630 -1.55E-03
    46 OT DIIS     0.80E-01    0.2     0.00038472      -372.1912426881 -1.33E-03
    47 OT DIIS     0.80E-01    0.2     0.00036320      -372.1927500586 -1.51E-03
    48 OT DIIS     0.80E-01    0.2     0.00034729      -372.1939902909 -1.24E-03
    49 OT DIIS     0.80E-01    0.2     0.00033457      -372.1949857845 -9.95E-04
    50 OT DIIS     0.80E-01    0.2     0.00031879      -372.1960318818 -1.05E-03

  Leaving inner SCF loop after reaching    50 steps.


  Core-core repulsion energy [eV]:                        1646494.21880209608935
  Core Hamiltonian energy [eV]:                            -16713.33835976159753
  Two-electron integral energy [eV]:                     -3279817.69907151209190
  Electronic energy [eV]:                                -1656622.18789551756345

  Total energy [eV]:                                       -10127.96909342158870

  Atomic reference energy [eV]:                             10135.12221567713459
  Heat of formation [kcal/mol]:                               164.95493099079599

 *** WARNING in qs_scf.F:609 :: SCF run NOT converged ***


 ENERGY| Total FORCE_EVAL ( QS ) energy [hartree]           -372.197193263054942

 MD_INI| MD initialization
 MD_INI| Potential energy [hartree]                          -0.372197193263E+03
 MD_INI| Kinetic energy [hartree]                             0.424194915233E-01
 MD_INI| Temperature [K]                                               94.000000
 MD_INI| Cell volume [bohr^3]                                 7.020230942695E+03
 MD_INI| Cell volume [ang^3]                                  1.040290883070E+03
 MD_INI| Cell lengths [bohr]      1.70755653E+01  1.70755653E+01  2.78016509E+01
 MD_INI| Cell lengths [ang]       9.03600000E+00  9.03600000E+00  1.47120000E+01
 MD_INI| Cell angles [deg]        9.00000000E+01  9.00000000E+01  1.20000000E+02

 Number of electrons:                                                        256
 Number of occupied orbitals:                                                128
 Number of molecular orbitals:                                               128

 Number of orbital functions:                                                192
 Number of independent orbital functions:                                    192

 Extrapolation method: ASPC


 SCF WAVEFUNCTION OPTIMIZATION

  ----------------------------------- OT ---------------------------------------
  Minimizer      : DIIS                : direct inversion
                                         in the iterative subspace
                                         using   7 DIIS vectors
                                         safer DIIS on
  Preconditioner : FULL_SINGLE_INVERSE : inversion of 
                                         H + eS - 2*(Sc)(c^T*H*c+const)(Sc)^T
  Precond_solver : DEFAULT
  stepsize       :    0.08000000                  energy_gap     :    0.08000000
  eps_taylor     :   0.10000E-15                  max_taylor     :             4
  ----------------------------------- OT ---------------------------------------

  Step     Update method      Time    Convergence         Total energy    Change
  ------------------------------------------------------------------------------
     1 OT DIIS     0.80E-01    1.0     0.00260028      -372.2248815652 -3.72E+02
     2 OT DIIS     0.80E-01    0.2     0.00186692      -372.2358444162 -1.10E-02
     3 OT DIIS     0.80E-01    0.3     0.00209798      -372.2429077913 -7.06E-03
     4 OT DIIS     0.80E-01    0.3     0.00084446      -372.2472621450 -4.35E-03
     5 OT DIIS     0.80E-01    0.3     0.00076575      -372.2483351124 -1.07E-03
     6 OT DIIS     0.80E-01    0.3     0.00032842      -372.2495324782 -1.20E-03
     7 OT DIIS     0.80E-01    0.3     0.00024426      -372.2498105351 -2.78E-04
     8 OT DIIS     0.80E-01    0.3     0.00017797      -372.2498837464 -7.32E-05
     9 OT DIIS     0.80E-01    0.3     0.00012959      -372.2499445009 -6.08E-05
    10 OT DIIS     0.80E-01    0.3     0.00010956      -372.2499823680 -3.79E-05
    11 OT DIIS     0.80E-01    0.3     0.00006169      -372.2500046946 -2.23E-05

  *** SCF run converged in    11 steps ***


  Core-core repulsion energy [eV]:                        1646703.34044274780899
  Core Hamiltonian energy [eV]:                            -16710.25966571327444
  Two-electron integral energy [eV]:                     -3280245.03709076624364
  Electronic energy [eV]:                                -1656832.77821109653451

  Total energy [eV]:                                       -10129.43776834867094

  Atomic reference energy [eV]:                             10135.12221567713459
  Heat of formation [kcal/mol]:                               131.08647990190224

 ENERGY| Total FORCE_EVAL ( QS ) energy [hartree]           -372.250013672921341

 MD| ***************************************************************************
 MD| Step number                                                               1
 MD| Time [fs]                                                          0.500000
 MD| Conserved quantity [hartree]                            -0.372180854208E+03
 MD| ---------------------------------------------------------------------------
 MD|                                          Instantaneous             Averages
 MD| CPU time per MD step [s]                     19.582779            19.582779
 MD| Energy drift per atom [K]          -0.857868800902E+02   0.000000000000E+00
 MD| Potential energy [hartree]         -0.372250013673E+03  -0.372250013673E+03
 MD| Kinetic energy [hartree]            0.694221629642E-01   0.694221629642E-01
 MD| Temperature [K]                             153.836906           153.836906
 MD| ***************************************************************************

 Number of electrons:                                                        256
 Number of occupied orbitals:                                                128
 Number of molecular orbitals:                                               128

 Number of orbital functions:                                                192
 Number of independent orbital functions:                                    192

 Extrapolation method: ASPC


 SCF WAVEFUNCTION OPTIMIZATION

  ----------------------------------- OT ---------------------------------------
  Minimizer      : DIIS                : direct inversion
                                         in the iterative subspace
                                         using   7 DIIS vectors
                                         safer DIIS on
  Preconditioner : FULL_SINGLE_INVERSE : inversion of 
                                         H + eS - 2*(Sc)(c^T*H*c+const)(Sc)^T
  Precond_solver : DEFAULT
  stepsize       :    0.08000000                  energy_gap     :    0.08000000
  eps_taylor     :   0.10000E-15                  max_taylor     :             4
  ----------------------------------- OT ---------------------------------------

  Step     Update method      Time    Convergence         Total energy    Change
  ------------------------------------------------------------------------------
     1 OT DIIS     0.80E-01    1.0     0.00263124      -372.2891048536 -3.72E+02
     2 OT DIIS     0.80E-01    0.2     0.00208049      -372.2997186833 -1.06E-02
     3 OT DIIS     0.80E-01    0.3     0.00217878      -372.3040417456 -4.32E-03
     4 OT DIIS     0.80E-01    0.3     0.00098805      -372.3111013703 -7.06E-03
     5 OT DIIS     0.80E-01    0.3     0.00076511      -372.3122800594 -1.18E-03
     6 OT DIIS     0.80E-01    0.3     0.00044954      -372.3136467338 -1.37E-03
     7 OT DIIS     0.80E-01    0.3     0.00037698      -372.3140667730 -4.20E-04
     8 OT DIIS     0.80E-01    0.3     0.00019039      -372.3142430203 -1.76E-04
     9 OT DIIS     0.80E-01    0.3     0.00016302      -372.3143301402 -8.71E-05
    10 OT DIIS     0.80E-01    0.3     0.00013232      -372.3143869628 -5.68E-05
    11 OT DIIS     0.80E-01    0.3     0.00008781      -372.3144387455 -5.18E-05

  *** SCF run converged in    11 steps ***


  Core-core repulsion energy [eV]:                        1646417.25894807348959
  Core Hamiltonian energy [eV]:                            -16700.80413031152420
  Two-electron integral energy [eV]:                     -3279695.29185160901397
  Electronic energy [eV]:                                -1656548.45005611609668

  Total energy [eV]:                                       -10131.19110804259799

  Atomic reference energy [eV]:                             10135.12221567713459
  Heat of formation [kcal/mol]:                                90.65350282104569

 ENERGY| Total FORCE_EVAL ( QS ) energy [hartree]           -372.314453696162673

 MD| ***************************************************************************
 MD| Step number                                                               2
 MD| Time [fs]                                                          1.000000
 MD| Conserved quantity [hartree]                            -0.372177075511E+03
 MD| ---------------------------------------------------------------------------
 MD|                                          Instantaneous             Averages
 MD| CPU time per MD step [s]                      5.130992            12.356886
 MD| Energy drift per atom [K]          -0.733575418467E+02  -0.366787709234E+02
 MD| Potential energy [hartree]         -0.372314453696E+03  -0.372282233685E+03
 MD| Kinetic energy [hartree]            0.136757962527E+00   0.103090062746E+00
 MD| Temperature [K]                             303.050509           228.443707
 MD| ***************************************************************************

 Number of electrons:                                                        256
 Number of occupied orbitals:                                                128
 Number of molecular orbitals:                                               128

 Number of orbital functions:                                                192
 Number of independent orbital functions:                                    192

 Extrapolation method: ASPC


 SCF WAVEFUNCTION OPTIMIZATION

  ----------------------------------- OT ---------------------------------------
  Minimizer      : DIIS                : direct inversion
                                         in the iterative subspace
                                         using   7 DIIS vectors
                                         safer DIIS on
  Preconditioner : FULL_SINGLE_INVERSE : inversion of 
                                         H + eS - 2*(Sc)(c^T*H*c+const)(Sc)^T
  Precond_solver : DEFAULT
  stepsize       :    0.08000000                  energy_gap     :    0.08000000
  eps_taylor     :   0.10000E-15                  max_taylor     :             4
  ----------------------------------- OT ---------------------------------------

  Step     Update method      Time    Convergence         Total energy    Change
  ------------------------------------------------------------------------------
     1 OT DIIS     0.80E-01    1.0     0.00156910      -372.4078422132 -3.72E+02
     2 OT DIIS     0.80E-01    0.2     0.00196908      -372.4098708619 -2.03E-03
     3 OT DIIS     0.80E-01    0.2     0.00090454      -372.4114219212 -1.55E-03
     4 OT DIIS     0.80E-01    0.3     0.00061407      -372.4134174809 -2.00E-03
     5 OT DIIS     0.80E-01    0.3     0.00043913      -372.4139391025 -5.22E-04
     6 OT DIIS     0.80E-01    0.3     0.00027311      -372.4142820545 -3.43E-04
     7 OT DIIS     0.80E-01    0.3     0.00024696      -372.4144176731 -1.36E-04
     8 OT DIIS     0.80E-01    0.3     0.00009598      -372.4145084656 -9.08E-05

  *** SCF run converged in     8 steps ***


  Core-core repulsion energy [eV]:                        1646287.46868246304803
  Core Hamiltonian energy [eV]:                            -16688.96605479273057
  Two-electron integral energy [eV]:                     -3279464.83354255836457
  Electronic energy [eV]:                                -1656421.38282607193105

  Total energy [eV]:                                       -10133.91414360889939

  Atomic reference energy [eV]:                             10135.12221567713459
  Heat of formation [kcal/mol]:                                27.85880592119176

 ENERGY| Total FORCE_EVAL ( QS ) energy [hartree]           -372.414528644279926

 MD| ***************************************************************************
 MD| Step number                                                               3
 MD| Time [fs]                                                          1.500000
 MD| Conserved quantity [hartree]                            -0.372176582401E+03
 MD| ---------------------------------------------------------------------------
 MD|                                          Instantaneous             Averages
 MD| CPU time per MD step [s]                      4.200690             9.638154
 MD| Energy drift per atom [K]          -0.717355449788E+02  -0.483643622752E+02
 MD| Potential energy [hartree]         -0.372414528644E+03  -0.372326332004E+03
 MD| Kinetic energy [hartree]            0.236160143143E+00   0.147446756211E+00
 MD| Temperature [K]                             523.322007           326.736474
 MD| ***************************************************************************

 Number of electrons:                                                        256
 Number of occupied orbitals:                                                128
 Number of molecular orbitals:                                               128

 Number of orbital functions:                                                192
 Number of independent orbital functions:                                    192

 Extrapolation method: ASPC


 SCF WAVEFUNCTION OPTIMIZATION

  ----------------------------------- OT ---------------------------------------
  Minimizer      : DIIS                : direct inversion
                                         in the iterative subspace
                                         using   7 DIIS vectors
                                         safer DIIS on
  Preconditioner : FULL_SINGLE_INVERSE : inversion of 
                                         H + eS - 2*(Sc)(c^T*H*c+const)(Sc)^T
  Precond_solver : DEFAULT
  stepsize       :    0.08000000                  energy_gap     :    0.08000000
  eps_taylor     :   0.10000E-15                  max_taylor     :             4
  ----------------------------------- OT ---------------------------------------

  Step     Update method      Time    Convergence         Total energy    Change
  ------------------------------------------------------------------------------
     1 OT DIIS     0.80E-01    1.0     0.00110170      -372.5413356489 -3.73E+02
     2 OT DIIS     0.80E-01    0.2     0.00182098      -372.5411708272  1.65E-04
     3 OT DIIS     0.80E-01    0.2     0.00040814      -372.5422944861 -1.12E-03
     4 OT DIIS     0.80E-01    0.2     0.00036749      -372.5425305460 -2.36E-04
     5 OT DIIS     0.80E-01    0.2     0.00024972      -372.5427166425 -1.86E-04
     6 OT DIIS     0.80E-01    0.2     0.00018264      -372.5428622704 -1.46E-04
     7 OT DIIS     0.80E-01    0.2     0.00009877      -372.5428930092 -3.07E-05

  *** SCF run converged in     7 steps ***


  Core-core repulsion energy [eV]:                        1646496.48786213900894
  Core Hamiltonian energy [eV]:                            -16675.76563623525362
  Two-electron integral energy [eV]:                     -3279916.25978122046217
  Electronic energy [eV]:                                -1656633.89552684547380

  Total energy [eV]:                                       -10137.40766470656854

  Atomic reference energy [eV]:                             10135.12221567713459
  Heat of formation [kcal/mol]:                               -52.70371083633376

 ENERGY| Total FORCE_EVAL ( QS ) energy [hartree]           -372.542922996333800

 MD| ***************************************************************************
 MD| Step number                                                               4
 MD| Time [fs]                                                          2.000000
 MD| Conserved quantity [hartree]                            -0.372180915731E+03
 MD| ---------------------------------------------------------------------------
 MD|                                          Instantaneous             Averages
 MD| CPU time per MD step [s]                      3.876928             8.197847
 MD| Energy drift per atom [K]          -0.859892502294E+02  -0.577705842637E+02
 MD| Potential energy [hartree]         -0.372542922996E+03  -0.372380479752E+03
 MD| Kinetic energy [hartree]            0.358794031700E+00   0.200283575083E+00
 MD| Temperature [K]                             795.074098           443.820880
 MD| ***************************************************************************

 Number of electrons:                                                        256
 Number of occupied orbitals:                                                128
 Number of molecular orbitals:                                               128

 Number of orbital functions:                                                192
 Number of independent orbital functions:                                    192

 Extrapolation method: ASPC


 SCF WAVEFUNCTION OPTIMIZATION

  ----------------------------------- OT ---------------------------------------
  Minimizer      : DIIS                : direct inversion
                                         in the iterative subspace
                                         using   7 DIIS vectors
                                         safer DIIS on
  Preconditioner : FULL_SINGLE_INVERSE : inversion of 
                                         H + eS - 2*(Sc)(c^T*H*c+const)(Sc)^T
  Precond_solver : DEFAULT
  stepsize       :    0.08000000                  energy_gap     :    0.08000000
  eps_taylor     :   0.10000E-15                  max_taylor     :             4
  ----------------------------------- OT ---------------------------------------

  Step     Update method      Time    Convergence         Total energy    Change
  ------------------------------------------------------------------------------
     1 OT DIIS     0.80E-01    1.0     0.00096028      -372.6878861748 -3.73E+02
     2 OT DIIS     0.80E-01    0.2     0.00147739      -372.6877119849  1.74E-04
     3 OT DIIS     0.80E-01    0.2     0.00033378      -372.6884416438 -7.30E-04
     4 OT DIIS     0.80E-01    0.2     0.00025936      -372.6884982868 -5.66E-05
     5 OT DIIS     0.80E-01    0.2     0.00014540      -372.6885431363 -4.48E-05
     6 OT DIIS     0.80E-01    0.2     0.00011391      -372.6886011259 -5.80E-05
     7 OT DIIS     0.80E-01    0.2     0.00005901      -372.6886132990 -1.22E-05

  *** SCF run converged in     7 steps ***


  Core-core repulsion energy [eV]:                        1646743.11534426175058
  Core Hamiltonian energy [eV]:                            -16658.74125205361997
  Two-electron integral energy [eV]:                     -3280451.49401530856267
  Electronic energy [eV]:                                -1656884.48825970804319

  Total energy [eV]:                                       -10141.37291544627260

  Atomic reference energy [eV]:                             10135.12221567713459
  Heat of formation [kcal/mol]:                              -144.14457242960026

 ENERGY| Total FORCE_EVAL ( QS ) energy [hartree]           -372.688620151064242

 MD| ***************************************************************************
 MD| Step number                                                               5
 MD| Time [fs]                                                          2.500000
 MD| Conserved quantity [hartree]                            -0.372185532711E+03
 MD| ---------------------------------------------------------------------------
 MD|                                          Instantaneous             Averages
 MD| CPU time per MD step [s]                      3.853220             7.328922
 MD| Energy drift per atom [K]          -0.101175971536E+03  -0.664516617182E+02
 MD| Potential energy [hartree]         -0.372688620151E+03  -0.372442107832E+03
 MD| Kinetic energy [hartree]            0.496943859839E+00   0.259615632035E+00
 MD| Temperature [K]                            1101.208929           575.298490
 MD| ***************************************************************************

 Number of electrons:                                                        256
 Number of occupied orbitals:                                                128
 Number of molecular orbitals:                                               128

 Number of orbital functions:                                                192
 Number of independent orbital functions:                                    192

 Extrapolation method: ASPC


 SCF WAVEFUNCTION OPTIMIZATION

  ----------------------------------- OT ---------------------------------------
  Minimizer      : DIIS                : direct inversion
                                         in the iterative subspace
                                         using   7 DIIS vectors
                                         safer DIIS on
  Preconditioner : FULL_SINGLE_INVERSE : inversion of 
                                         H + eS - 2*(Sc)(c^T*H*c+const)(Sc)^T
  Precond_solver : DEFAULT
  stepsize       :    0.08000000                  energy_gap     :    0.08000000
  eps_taylor     :   0.10000E-15                  max_taylor     :             4
  ----------------------------------- OT ---------------------------------------

  Step     Update method      Time    Convergence         Total energy    Change
  ------------------------------------------------------------------------------
     1 OT DIIS     0.80E-01    1.0     0.00101009      -372.8428630884 -3.73E+02
     2 OT DIIS     0.80E-01    0.2     0.00173950      -372.8423924510  4.71E-04
     3 OT DIIS     0.80E-01    0.2     0.00029111      -372.8433568797 -9.64E-04
     4 OT DIIS     0.80E-01    0.2     0.00020452      -372.8433895783 -3.27E-05
     5 OT DIIS     0.80E-01    0.2     0.00010167      -372.8434104159 -2.08E-05
     6 OT DIIS     0.80E-01    0.2     0.00010128      -372.8434317534 -2.13E-05
     7 OT DIIS     0.80E-01    0.2     0.00004402      -372.8434421691 -1.04E-05

  *** SCF run converged in     7 steps ***


  Core-core repulsion energy [eV]:                        1646791.42879961640574
  Core Hamiltonian energy [eV]:                            -16636.45472936457736
  Two-electron integral energy [eV]:                     -3280601.12018703017384
  Electronic energy [eV]:                                -1656937.01482287957333

  Total energy [eV]:                                       -10145.58602326307846

  Atomic reference energy [eV]:                             10135.12221567713459
  Heat of formation [kcal/mol]:                              -241.30115445766160

 ENERGY| Total FORCE_EVAL ( QS ) energy [hartree]           -372.843445743783377

 MD| ***************************************************************************
 MD| Step number                                                               6
 MD| Time [fs]                                                          3.000000
 MD| Conserved quantity [hartree]                            -0.372187708197E+03
 MD| ---------------------------------------------------------------------------
 MD|                                          Instantaneous             Averages
 MD| CPU time per MD step [s]                      3.865193             6.751634
 MD| Energy drift per atom [K]          -0.108331839860E+03  -0.734316914085E+02
 MD| Potential energy [hartree]         -0.372843445744E+03  -0.372508997484E+03
 MD| Kinetic energy [hartree]            0.647124334344E+00   0.324200415753E+00
 MD| Temperature [K]                            1434.003220           718.415945
 MD| ***************************************************************************

 Number of electrons:                                                        256
 Number of occupied orbitals:                                                128
 Number of molecular orbitals:                                               128

 Number of orbital functions:                                                192
 Number of independent orbital functions:                                    192

 Extrapolation method: ASPC


 SCF WAVEFUNCTION OPTIMIZATION

  ----------------------------------- OT ---------------------------------------
  Minimizer      : DIIS                : direct inversion
                                         in the iterative subspace
                                         using   7 DIIS vectors
                                         safer DIIS on
  Preconditioner : FULL_SINGLE_INVERSE : inversion of 
                                         H + eS - 2*(Sc)(c^T*H*c+const)(Sc)^T
  Precond_solver : DEFAULT
  stepsize       :    0.08000000                  energy_gap     :    0.08000000
  eps_taylor     :   0.10000E-15                  max_taylor     :             4
  ----------------------------------- OT ---------------------------------------

  Step     Update method      Time    Convergence         Total energy    Change
  ------------------------------------------------------------------------------
     1 OT DIIS     0.80E-01    1.0     0.00126309      -373.0017653408 -3.73E+02
     2 OT DIIS     0.80E-01    0.2     0.00234956      -373.0007544791  1.01E-03
     3 OT DIIS     0.80E-01    0.2     0.00029460      -373.0024670647 -1.71E-03
     4 OT DIIS     0.80E-01    0.2     0.00021479      -373.0024980408 -3.10E-05
     5 OT DIIS     0.80E-01    0.2     0.00009419      -373.0025172008 -1.92E-05

  *** SCF run converged in     5 steps ***


  Core-core repulsion energy [eV]:                        1646886.99935625400394
  Core Hamiltonian energy [eV]:                            -16610.44455287570963
  Two-electron integral energy [eV]:                     -3280852.93895677989349
  Electronic energy [eV]:                                -1657036.91403126553632

  Total energy [eV]:                                       -10149.91467501159605

  Atomic reference energy [eV]:                             10135.12221567713459
  Heat of formation [kcal/mol]:                              -341.12224306081708

 ENERGY| Total FORCE_EVAL ( QS ) energy [hartree]           -373.002533034064982

 MD| ***************************************************************************
 MD| Step number                                                               7
 MD| Time [fs]                                                          3.500000
 MD| Conserved quantity [hartree]                            -0.372189583443E+03
 MD| ---------------------------------------------------------------------------
 MD|                                          Instantaneous             Averages
 MD| CPU time per MD step [s]                      3.374931             6.269248
 MD| Energy drift per atom [K]          -0.114500123763E+03  -0.792986103163E+02
 MD| Potential energy [hartree]         -0.373002533034E+03  -0.372579502563E+03
 MD| Kinetic energy [hartree]            0.800147758998E+00   0.392192893359E+00
 MD| Temperature [K]                            1773.097382           869.084721
 MD| ***************************************************************************

 Number of electrons:                                                        256
 Number of occupied orbitals:                                                128
 Number of molecular orbitals:                                               128

 Number of orbital functions:                                                192
 Number of independent orbital functions:                                    192

 Extrapolation method: ASPC


 SCF WAVEFUNCTION OPTIMIZATION

  ----------------------------------- OT ---------------------------------------
  Minimizer      : DIIS                : direct inversion
                                         in the iterative subspace
                                         using   7 DIIS vectors
                                         safer DIIS on
  Preconditioner : FULL_SINGLE_INVERSE : inversion of 
                                         H + eS - 2*(Sc)(c^T*H*c+const)(Sc)^T
  Precond_solver : DEFAULT
  stepsize       :    0.08000000                  energy_gap     :    0.08000000
  eps_taylor     :   0.10000E-15                  max_taylor     :             4
  ----------------------------------- OT ---------------------------------------

  Step     Update method      Time    Convergence         Total energy    Change
  ------------------------------------------------------------------------------
     1 OT DIIS     0.80E-01    1.0     0.00152176      -373.1533304813 -3.73E+02
     2 OT DIIS     0.80E-01    0.2     0.00257390      -373.1523975890  9.33E-04
     3 OT DIIS     0.80E-01    0.2     0.00044580      -373.1544708832 -2.07E-03
     4 OT DIIS     0.80E-01    0.2     0.00029713      -373.1545447389 -7.39E-05
     5 OT DIIS     0.80E-01    0.2     0.00014693      -373.1545821096 -3.74E-05
     6 OT DIIS     0.80E-01    0.2     0.00015730      -373.1546253707 -4.33E-05
     7 OT DIIS     0.80E-01    0.2     0.00007743      -373.1546681426 -4.28E-05

  *** SCF run converged in     7 steps ***


  Core-core repulsion energy [eV]:                        1647190.87116045854054
  Core Hamiltonian energy [eV]:                            -16581.85357048190781
  Two-electron integral energy [eV]:                     -3281526.14500533929095
  Electronic energy [eV]:                                -1657344.92607315140776

  Total energy [eV]:                                       -10154.05491269289996

  Atomic reference energy [eV]:                             10135.12221567713459
  Heat of formation [kcal/mol]:                              -436.59839971050911

 ENERGY| Total FORCE_EVAL ( QS ) energy [hartree]           -373.154682789405342

 MD| ***************************************************************************
 MD| Step number                                                               8
 MD| Time [fs]                                                          4.000000
 MD| Conserved quantity [hartree]                            -0.372192444546E+03
 MD| ---------------------------------------------------------------------------
 MD|                                          Instantaneous             Averages
 MD| CPU time per MD step [s]                      3.869477             5.969276
 MD| Energy drift per atom [K]          -0.123911204743E+03  -0.848751846196E+02
 MD| Potential energy [hartree]         -0.373154682789E+03  -0.372651400091E+03
 MD| Kinetic energy [hartree]            0.941305383182E+00   0.460831954587E+00
 MD| Temperature [K]                            2085.897375          1021.186303
 MD| ***************************************************************************

 Number of electrons:                                                        256
 Number of occupied orbitals:                                                128
 Number of molecular orbitals:                                               128

 Number of orbital functions:                                                192
 Number of independent orbital functions:                                    192

 Extrapolation method: ASPC


 SCF WAVEFUNCTION OPTIMIZATION

  ----------------------------------- OT ---------------------------------------
  Minimizer      : DIIS                : direct inversion
                                         in the iterative subspace
                                         using   7 DIIS vectors
                                         safer DIIS on
  Preconditioner : FULL_SINGLE_INVERSE : inversion of 
                                         H + eS - 2*(Sc)(c^T*H*c+const)(Sc)^T
  Precond_solver : DEFAULT
  stepsize       :    0.08000000                  energy_gap     :    0.08000000
  eps_taylor     :   0.10000E-15                  max_taylor     :             4
  ----------------------------------- OT ---------------------------------------

  Step     Update method      Time    Convergence         Total energy    Change
  ------------------------------------------------------------------------------
     1 OT DIIS     0.80E-01    1.0     0.00159432      -373.2833337311 -3.73E+02
     2 OT DIIS     0.80E-01    0.2     0.00280982      -373.2819584026  1.38E-03
     3 OT DIIS     0.80E-01    0.2     0.00045197      -373.2844466521 -2.49E-03
     4 OT DIIS     0.80E-01    0.2     0.00033303      -373.2844965175 -4.99E-05
     5 OT DIIS     0.80E-01    0.2     0.00010952      -373.2845319778 -3.55E-05
     6 OT DIIS     0.80E-01    0.2     0.00010247      -373.2845441481 -1.22E-05
     7 OT DIIS     0.80E-01    0.2     0.00005375      -373.2845566243 -1.25E-05

  *** SCF run converged in     7 steps ***


  Core-core repulsion energy [eV]:                        1647785.15577990235761
  Core Hamiltonian energy [eV]:                            -16552.02197974926094
  Two-electron integral energy [eV]:                     -3282781.44631636328995
  Electronic energy [eV]:                                -1657942.74513793108054

  Total energy [eV]:                                       -10157.58935802878295

  Atomic reference energy [eV]:                             10135.12221567713459
  Heat of formation [kcal/mol]:                              -518.10465189558988

 ENERGY| Total FORCE_EVAL ( QS ) energy [hartree]           -373.284562103290227

 MD| ***************************************************************************
 MD| Step number                                                               9
 MD| Time [fs]                                                          4.500000
 MD| Conserved quantity [hartree]                            -0.372197467648E+03
 MD| ---------------------------------------------------------------------------
 MD|                                          Instantaneous             Averages
 MD| CPU time per MD step [s]                      3.892079             5.738477
 MD| Energy drift per atom [K]          -0.140433788777E+03  -0.910483628593E+02
 MD| Potential energy [hartree]         -0.373284562103E+03  -0.372721751426E+03
 MD| Kinetic energy [hartree]            0.106049543717E+01   0.527461230430E+00
 MD| Temperature [K]                            2350.018058          1168.834276
 MD| ***************************************************************************

 Number of electrons:                                                        256
 Number of occupied orbitals:                                                128
 Number of molecular orbitals:                                               128

 Number of orbital functions:                                                192
 Number of independent orbital functions:                                    192

 Extrapolation method: ASPC


 SCF WAVEFUNCTION OPTIMIZATION

  ----------------------------------- OT ---------------------------------------
  Minimizer      : DIIS                : direct inversion
                                         in the iterative subspace
                                         using   7 DIIS vectors
                                         safer DIIS on
  Preconditioner : FULL_SINGLE_INVERSE : inversion of 
                                         H + eS - 2*(Sc)(c^T*H*c+const)(Sc)^T
  Precond_solver : DEFAULT
  stepsize       :    0.08000000                  energy_gap     :    0.08000000
  eps_taylor     :   0.10000E-15                  max_taylor     :             4
  ----------------------------------- OT ---------------------------------------

  Step     Update method      Time    Convergence         Total energy    Change
  ------------------------------------------------------------------------------
     1 OT DIIS     0.80E-01    1.0     0.00167225      -373.3734682764 -3.73E+02
     2 OT DIIS     0.80E-01    0.2     0.00308977      -373.3717660672  1.70E-03
     3 OT DIIS     0.80E-01    0.2     0.00054957      -373.3746618043 -2.90E-03
     4 OT DIIS     0.80E-01    0.2     0.00040782      -373.3747214304 -5.96E-05
     5 OT DIIS     0.80E-01    0.2     0.00011242      -373.3747729189 -5.15E-05
     6 OT DIIS     0.80E-01    0.2     0.00010663      -373.3747853726 -1.25E-05
     7 OT DIIS     0.80E-01    0.2     0.00005963      -373.3747966579 -1.13E-05

  *** SCF run converged in     7 steps ***


  Core-core repulsion energy [eV]:                        1648322.00608473131433
  Core Hamiltonian energy [eV]:                            -16521.69105815857984
  Two-electron integral energy [eV]:                     -3283920.71988159045577
  Electronic energy [eV]:                                -1658482.05099895386957

  Total energy [eV]:                                       -10160.04491422264437

  Atomic reference energy [eV]:                             10135.12221567713459
  Heat of formation [kcal/mol]:                              -574.73112744457057

 ENERGY| Total FORCE_EVAL ( QS ) energy [hartree]           -373.374800251534907

 MD| ***************************************************************************
 MD| Step number                                                              10
 MD| Time [fs]                                                          5.000000
 MD| Conserved quantity [hartree]                            -0.372203087367E+03
 MD| ---------------------------------------------------------------------------
 MD|                                          Instantaneous             Averages
 MD| CPU time per MD step [s]                      3.888128             5.553442
 MD| Energy drift per atom [K]          -0.158918838625E+03  -0.978354104359E+02
 MD| Potential energy [hartree]         -0.373374800252E+03  -0.372787056308E+03
 MD| Kinetic energy [hartree]            0.114233376598E+01   0.588948483984E+00
 MD| Temperature [K]                            2531.368721          1305.087720
 MD| ***************************************************************************

 Number of electrons:                                                        256
 Number of occupied orbitals:                                                128
 Number of molecular orbitals:                                               128

 Number of orbital functions:                                                192
 Number of independent orbital functions:                                    192

 Extrapolation method: ASPC


 SCF WAVEFUNCTION OPTIMIZATION

  ----------------------------------- OT ---------------------------------------
  Minimizer      : DIIS                : direct inversion
                                         in the iterative subspace
                                         using   7 DIIS vectors
                                         safer DIIS on
  Preconditioner : FULL_SINGLE_INVERSE : inversion of 
                                         H + eS - 2*(Sc)(c^T*H*c+const)(Sc)^T
  Precond_solver : DEFAULT
  stepsize       :    0.08000000                  energy_gap     :    0.08000000
  eps_taylor     :   0.10000E-15                  max_taylor     :             4
  ----------------------------------- OT ---------------------------------------

  Step     Update method      Time    Convergence         Total energy    Change
  ------------------------------------------------------------------------------
     1 OT DIIS     0.80E-01    1.0     0.00151794      -373.4106507071 -3.73E+02
     2 OT DIIS     0.80E-01    0.2     0.00275078      -373.4094630212  1.19E-03
     3 OT DIIS     0.80E-01    0.2     0.00057726      -373.4116953535 -2.23E-03
     4 OT DIIS     0.80E-01    0.2     0.00043412      -373.4117649361 -6.96E-05
     5 OT DIIS     0.80E-01    0.2     0.00012937      -373.4118242488 -5.93E-05
     6 OT DIIS     0.80E-01    0.2     0.00012870      -373.4118515801 -2.73E-05
     7 OT DIIS     0.80E-01    0.2     0.00009187      -373.4118727585 -2.12E-05

  *** SCF run converged in     7 steps ***


  Core-core repulsion energy [eV]:                        1648573.66467537963763
  Core Hamiltonian energy [eV]:                            -16491.27060999282548
  Two-electron integral energy [eV]:                     -3284486.89574322616681
  Electronic energy [eV]:                                -1658734.71848160587251

  Total energy [eV]:                                       -10161.05380622613666

  Atomic reference energy [eV]:                             10135.12221567713459
  Heat of formation [kcal/mol]:                              -597.99673159165366

 ENERGY| Total FORCE_EVAL ( QS ) energy [hartree]           -373.411883507687890

 MD| ***************************************************************************
 MD| Step number                                                              11
 MD| Time [fs]                                                          5.500000
 MD| Conserved quantity [hartree]                            -0.372207801944E+03
 MD| ---------------------------------------------------------------------------
 MD|                                          Instantaneous             Averages
 MD| CPU time per MD step [s]                      3.910172             5.404054
 MD| Energy drift per atom [K]          -0.174426586947E+03  -0.104798244664E+03
 MD| Potential energy [hartree]         -0.373411883508E+03  -0.372843858781E+03
 MD| Kinetic energy [hartree]            0.116731299516E+01   0.641527075909E+00
 MD| Temperature [K]                            2586.721755          1421.599905
 MD| ***************************************************************************

 Number of electrons:                                                        256
 Number of occupied orbitals:                                                128
 Number of molecular orbitals:                                               128

 Number of orbital functions:                                                192
 Number of independent orbital functions:                                    192

 Extrapolation method: ASPC


 SCF WAVEFUNCTION OPTIMIZATION

  ----------------------------------- OT ---------------------------------------
  Minimizer      : DIIS                : direct inversion
                                         in the iterative subspace
                                         using   7 DIIS vectors
                                         safer DIIS on
  Preconditioner : FULL_SINGLE_INVERSE : inversion of 
                                         H + eS - 2*(Sc)(c^T*H*c+const)(Sc)^T
  Precond_solver : DEFAULT
  stepsize       :    0.08000000                  energy_gap     :    0.08000000
  eps_taylor     :   0.10000E-15                  max_taylor     :             4
  ----------------------------------- OT ---------------------------------------

  Step     Update method      Time    Convergence         Total energy    Change
  ------------------------------------------------------------------------------
     1 OT DIIS     0.80E-01    1.1     0.00128727      -373.3897788231 -3.73E+02
     2 OT DIIS     0.80E-01    0.2     0.00246452      -373.3888182753  9.61E-04
     3 OT DIIS     0.80E-01    0.2     0.00060363      -373.3904758659 -1.66E-03
     4 OT DIIS     0.80E-01    0.2     0.00036943      -373.3905521740 -7.63E-05
     5 OT DIIS     0.80E-01    0.2     0.00009088      -373.3905926495 -4.05E-05

  *** SCF run converged in     5 steps ***


  Core-core repulsion energy [eV]:                        1648808.36640781443566
  Core Hamiltonian energy [eV]:                            -16461.58880413632141
  Two-electron integral energy [eV]:                     -3285014.50469737872481
  Electronic energy [eV]:                                -1658968.84115282585844

  Total energy [eV]:                                       -10160.47474501137731

  Atomic reference energy [eV]:                             10135.12221567713459
  Heat of formation [kcal/mol]:                              -584.64326169309504

 ENERGY| Total FORCE_EVAL ( QS ) energy [hartree]           -373.390605005486577

 MD| ***************************************************************************
 MD| Step number                                                              12
 MD| Time [fs]                                                          6.000000
 MD| Conserved quantity [hartree]                            -0.372210988699E+03
 MD| ---------------------------------------------------------------------------
 MD|                                          Instantaneous             Averages
 MD| CPU time per MD step [s]                      3.464118             5.242392
 MD| Energy drift per atom [K]          -0.184908843541E+03  -0.111474127904E+03
 MD| Potential energy [hartree]         -0.373390605005E+03  -0.372889420966E+03
 MD| Kinetic energy [hartree]            0.113768616558E+01   0.682873666715E+00
 MD| Temperature [K]                            2521.069813          1513.222398
 MD| ***************************************************************************

 Number of electrons:                                                        256
 Number of occupied orbitals:                                                128
 Number of molecular orbitals:                                               128

 Number of orbital functions:                                                192
 Number of independent orbital functions:                                    192

 Extrapolation method: ASPC


 SCF WAVEFUNCTION OPTIMIZATION

  ----------------------------------- OT ---------------------------------------
  Minimizer      : DIIS                : direct inversion
                                         in the iterative subspace
                                         using   7 DIIS vectors
                                         safer DIIS on
  Preconditioner : FULL_SINGLE_INVERSE : inversion of 
                                         H + eS - 2*(Sc)(c^T*H*c+const)(Sc)^T
  Precond_solver : DEFAULT
  stepsize       :    0.08000000                  energy_gap     :    0.08000000
  eps_taylor     :   0.10000E-15                  max_taylor     :             4
  ----------------------------------- OT ---------------------------------------

  Step     Update method      Time    Convergence         Total energy    Change
  ------------------------------------------------------------------------------
     1 OT DIIS     0.80E-01    1.0     0.00130448      -373.3146342858 -3.73E+02
     2 OT DIIS     0.80E-01    0.2     0.00275077      -373.3133258099  1.31E-03
     3 OT DIIS     0.80E-01    0.2     0.00062921      -373.3153121986 -1.99E-03
     4 OT DIIS     0.80E-01    0.2     0.00035187      -373.3154035928 -9.14E-05
     5 OT DIIS     0.80E-01    0.2     0.00011993      -373.3154471821 -4.36E-05
     6 OT DIIS     0.80E-01    0.2     0.00013712      -373.3154669786 -1.98E-05
     7 OT DIIS     0.80E-01    0.2     0.00006366      -373.3154837217 -1.67E-05

  *** SCF run converged in     7 steps ***


  Core-core repulsion energy [eV]:                        1649132.62406761734746
  Core Hamiltonian energy [eV]:                            -16433.86381201073891
  Two-electron integral energy [eV]:                     -3285714.38236550660804
  Electronic energy [eV]:                                -1659291.05499476380646

  Total energy [eV]:                                       -10158.43092714659724

  Atomic reference energy [eV]:                             10135.12221567713459
  Heat of formation [kcal/mol]:                              -537.51169832843323

 ENERGY| Total FORCE_EVAL ( QS ) energy [hartree]           -373.315488202650158

 MD| ***************************************************************************
 MD| Step number                                                              13
 MD| Time [fs]                                                          6.500000
 MD| Conserved quantity [hartree]                            -0.372213533269E+03
 MD| ---------------------------------------------------------------------------
 MD|                                          Instantaneous             Averages
 MD| CPU time per MD step [s]                      3.891789             5.138500
 MD| Energy drift per atom [K]          -0.193278747354E+03  -0.117766790938E+03
 MD| Potential energy [hartree]         -0.373315488203E+03  -0.372922195369E+03
 MD| Kinetic energy [hartree]            0.105501919386E+01   0.711500245726E+00
 MD| Temperature [K]                            2337.882909          1576.657822
 MD| ***************************************************************************

 Number of electrons:                                                        256
 Number of occupied orbitals:                                                128
 Number of molecular orbitals:                                               128

 Number of orbital functions:                                                192
 Number of independent orbital functions:                                    192

 Extrapolation method: ASPC


 SCF WAVEFUNCTION OPTIMIZATION

  ----------------------------------- OT ---------------------------------------
  Minimizer      : DIIS                : direct inversion
                                         in the iterative subspace
                                         using   7 DIIS vectors
                                         safer DIIS on
  Preconditioner : FULL_SINGLE_INVERSE : inversion of 
                                         H + eS - 2*(Sc)(c^T*H*c+const)(Sc)^T
  Precond_solver : DEFAULT
  stepsize       :    0.08000000                  energy_gap     :    0.08000000
  eps_taylor     :   0.10000E-15                  max_taylor     :             4
  ----------------------------------- OT ---------------------------------------

  Step     Update method      Time    Convergence         Total energy    Change
  ------------------------------------------------------------------------------
     1 OT DIIS     0.80E-01    1.0     0.00117906      -373.1993804342 -3.73E+02
     2 OT DIIS     0.80E-01    0.2     0.00263644      -373.1980756711  1.30E-03
     3 OT DIIS     0.80E-01    0.2     0.00050221      -373.1998841242 -1.81E-03
     4 OT DIIS     0.80E-01    0.2     0.00030125      -373.1999346033 -5.05E-05
     5 OT DIIS     0.80E-01    0.2     0.00007040      -373.1999616183 -2.70E-05

  *** SCF run converged in     5 steps ***


  Core-core repulsion energy [eV]:                        1649607.95656349859200
  Core Hamiltonian energy [eV]:                            -16410.04426380659424
  Two-electron integral energy [eV]:                     -3286706.39942107908428
  Electronic energy [eV]:                                -1659763.24397434620187

  Total energy [eV]:                                       -10155.28741084749527

  Atomic reference energy [eV]:                             10135.12221567713459
  Heat of formation [kcal/mol]:                              -465.02048460915972

 ENERGY| Total FORCE_EVAL ( QS ) energy [hartree]           -373.199965687264921

 MD| ***************************************************************************
 MD| Step number                                                              14
 MD| Time [fs]                                                          7.000000
 MD| Conserved quantity [hartree]                            -0.372217331616E+03
 MD| ---------------------------------------------------------------------------
 MD|                                          Instantaneous             Averages
 MD| CPU time per MD step [s]                      3.412155             5.015189
 MD| Energy drift per atom [K]          -0.205772721790E+03  -0.124052928856E+03
 MD| Potential energy [hartree]         -0.373199965687E+03  -0.372942036106E+03
 MD| Kinetic energy [hartree]            0.931693491032E+00   0.727228334677E+00
 MD| Temperature [K]                            2064.597783          1611.510676
 MD| ***************************************************************************

 Number of electrons:                                                        256
 Number of occupied orbitals:                                                128
 Number of molecular orbitals:                                               128

 Number of orbital functions:                                                192
 Number of independent orbital functions:                                    192

 Extrapolation method: ASPC


 SCF WAVEFUNCTION OPTIMIZATION

  ----------------------------------- OT ---------------------------------------
  Minimizer      : DIIS                : direct inversion
                                         in the iterative subspace
                                         using   7 DIIS vectors
                                         safer DIIS on
  Preconditioner : FULL_SINGLE_INVERSE : inversion of 
                                         H + eS - 2*(Sc)(c^T*H*c+const)(Sc)^T
  Precond_solver : DEFAULT
  stepsize       :    0.08000000                  energy_gap     :    0.08000000
  eps_taylor     :   0.10000E-15                  max_taylor     :             4
  ----------------------------------- OT ---------------------------------------

  Step     Update method      Time    Convergence         Total energy    Change
  ------------------------------------------------------------------------------
     1 OT DIIS     0.80E-01    1.0     0.00121268      -373.0574308761 -3.73E+02
     2 OT DIIS     0.80E-01    0.2     0.00266217      -373.0561877859  1.24E-03
     3 OT DIIS     0.80E-01    0.2     0.00058118      -373.0580127732 -1.82E-03
     4 OT DIIS     0.80E-01    0.2     0.00034757      -373.0580838883 -7.11E-05
     5 OT DIIS     0.80E-01    0.2     0.00010581      -373.0581247512 -4.09E-05
     6 OT DIIS     0.80E-01    0.2     0.00012481      -373.0581389928 -1.42E-05
     7 OT DIIS     0.80E-01    0.2     0.00005412      -373.0581501774 -1.12E-05

  *** SCF run converged in     7 steps ***


  Core-core repulsion energy [eV]:                        1649917.76561877410859
  Core Hamiltonian energy [eV]:                            -16388.82375647642039
  Two-electron integral energy [eV]:                     -3287360.74077518470585
  Electronic energy [eV]:                                -1660069.19414406851865

  Total energy [eV]:                                       -10151.42852529443917

  Atomic reference energy [eV]:                             10135.12221567713459
  Heat of formation [kcal/mol]:                              -376.03246268458093

 ENERGY| Total FORCE_EVAL ( QS ) energy [hartree]           -373.058153227793809

 MD| ***************************************************************************
 MD| Step number                                                              15
 MD| Time [fs]                                                          7.500000
 MD| Conserved quantity [hartree]                            -0.372219586560E+03
 MD| ---------------------------------------------------------------------------
 MD|                                          Instantaneous             Averages
 MD| CPU time per MD step [s]                      3.881286             4.939596
 MD| Energy drift per atom [K]          -0.213189954083E+03  -0.129995397205E+03
 MD| Potential energy [hartree]         -0.373058153228E+03  -0.372949777248E+03
 MD| Kinetic energy [hartree]            0.784602209642E+00   0.731053259674E+00
 MD| Temperature [K]                            1738.649028          1619.986566
 MD| ***************************************************************************

 Number of electrons:                                                        256
 Number of occupied orbitals:                                                128
 Number of molecular orbitals:                                               128

 Number of orbital functions:                                                192
 Number of independent orbital functions:                                    192

 Extrapolation method: ASPC


 SCF WAVEFUNCTION OPTIMIZATION

  ----------------------------------- OT ---------------------------------------
  Minimizer      : DIIS                : direct inversion
                                         in the iterative subspace
                                         using   7 DIIS vectors
                                         safer DIIS on
  Preconditioner : FULL_SINGLE_INVERSE : inversion of 
                                         H + eS - 2*(Sc)(c^T*H*c+const)(Sc)^T
  Precond_solver : DEFAULT
  stepsize       :    0.08000000                  energy_gap     :    0.08000000
  eps_taylor     :   0.10000E-15                  max_taylor     :             4
  ----------------------------------- OT ---------------------------------------

  Step     Update method      Time    Convergence         Total energy    Change
  ------------------------------------------------------------------------------
     1 OT DIIS     0.80E-01    1.0     0.00123843      -372.9074888305 -3.73E+02
     2 OT DIIS     0.80E-01    0.2     0.00247931      -372.9066787404  8.10E-04
     3 OT DIIS     0.80E-01    0.2     0.00073974      -372.9081503401 -1.47E-03
     4 OT DIIS     0.80E-01    0.2     0.00037255      -372.9082592383 -1.09E-04
     5 OT DIIS     0.80E-01    0.2     0.00008341      -372.9083001357 -4.09E-05

  *** SCF run converged in     5 steps ***


  Core-core repulsion energy [eV]:                        1650019.55776067357510
  Core Hamiltonian energy [eV]:                            -16369.70008470346875
  Two-electron integral energy [eV]:                     -3287594.41714851604775
  Electronic energy [eV]:                                -1660166.90865896153264

  Total energy [eV]:                                       -10147.35089828802484

  Atomic reference energy [eV]:                             10135.12221567713459
  Heat of formation [kcal/mol]:                              -282.00014261234429

 ENERGY| Total FORCE_EVAL ( QS ) energy [hartree]           -372.908306186742266

 MD| ***************************************************************************
 MD| Step number                                                              16
 MD| Time [fs]                                                          8.000000
 MD| Conserved quantity [hartree]                            -0.372219330436E+03
 MD| ---------------------------------------------------------------------------
 MD|                                          Instantaneous             Averages
 MD| CPU time per MD step [s]                      3.422463             4.844775
 MD| Energy drift per atom [K]          -0.212347478810E+03  -0.135142402305E+03
 MD| Potential energy [hartree]         -0.372908306187E+03  -0.372947185306E+03
 MD| Kinetic energy [hartree]            0.632783097258E+00   0.724911374523E+00
 MD| Temperature [K]                            1402.223577          1606.376379
 MD| ***************************************************************************

 Number of electrons:                                                        256
 Number of occupied orbitals:                                                128
 Number of molecular orbitals:                                               128

 Number of orbital functions:                                                192
 Number of independent orbital functions:                                    192

 Extrapolation method: ASPC


 SCF WAVEFUNCTION OPTIMIZATION

  ----------------------------------- OT ---------------------------------------
  Minimizer      : DIIS                : direct inversion
                                         in the iterative subspace
                                         using   7 DIIS vectors
                                         safer DIIS on
  Preconditioner : FULL_SINGLE_INVERSE : inversion of 
                                         H + eS - 2*(Sc)(c^T*H*c+const)(Sc)^T
  Precond_solver : DEFAULT
  stepsize       :    0.08000000                  energy_gap     :    0.08000000
  eps_taylor     :   0.10000E-15                  max_taylor     :             4
  ----------------------------------- OT ---------------------------------------

  Step     Update method      Time    Convergence         Total energy    Change
  ------------------------------------------------------------------------------
     1 OT DIIS     0.80E-01    1.0     0.00114708      -372.7691402718 -3.73E+02
     2 OT DIIS     0.80E-01    0.2     0.00182501      -372.7690080342  1.32E-04
     3 OT DIIS     0.80E-01    0.2     0.00077574      -372.7698085152 -8.00E-04
     4 OT DIIS     0.80E-01    0.2     0.00037560      -372.7699406842 -1.32E-04
     5 OT DIIS     0.80E-01    0.2     0.00012221      -372.7699812183 -4.05E-05
     6 OT DIIS     0.80E-01    0.2     0.00010071      -372.7699946324 -1.34E-05
     7 OT DIIS     0.80E-01    0.2     0.00006884      -372.7700037211 -9.09E-06

  *** SCF run converged in     7 steps ***


  Core-core repulsion energy [eV]:                        1649962.55914969765581
  Core Hamiltonian energy [eV]:                            -16353.85898470332359
  Two-electron integral energy [eV]:                     -3287504.57565291645005
  Electronic energy [eV]:                                -1660106.14681116165593

  Total energy [eV]:                                       -10143.58766146387461

  Atomic reference energy [eV]:                             10135.12221567713459
  Heat of formation [kcal/mol]:                              -195.21783295051475

 ENERGY| Total FORCE_EVAL ( QS ) energy [hartree]           -372.770010106272821

 MD| ***************************************************************************
 MD| Step number                                                              17
 MD| Time [fs]                                                          8.500000
 MD| Conserved quantity [hartree]                            -0.372217827220E+03
 MD| ---------------------------------------------------------------------------
 MD|                                          Instantaneous             Averages
 MD| CPU time per MD step [s]                      3.889239             4.788567
 MD| Energy drift per atom [K]          -0.207402922798E+03  -0.139393021158E+03
 MD| Potential energy [hartree]         -0.372770010106E+03  -0.372936763236E+03
 MD| Kinetic energy [hartree]            0.496251632628E+00   0.711460801471E+00
 MD| Temperature [K]                            1099.674979          1576.570415
 MD| ***************************************************************************

 Number of electrons:                                                        256
 Number of occupied orbitals:                                                128
 Number of molecular orbitals:                                               128

 Number of orbital functions:                                                192
 Number of independent orbital functions:                                    192

 Extrapolation method: ASPC


 SCF WAVEFUNCTION OPTIMIZATION

  ----------------------------------- OT ---------------------------------------
  Minimizer      : DIIS                : direct inversion
                                         in the iterative subspace
[...]
  ------------------------------------------------------------------------------
     1 OT DIIS     0.80E-01    1.0     0.00074159      -373.5561084309 -3.74E+02
     2 OT DIIS     0.80E-01    0.2     0.00138453      -373.5558145007  2.94E-04
     3 OT DIIS     0.80E-01    0.2     0.00028458      -373.5563526948 -5.38E-04
     4 OT DIIS     0.80E-01    0.2     0.00015250      -373.5563749419 -2.22E-05
     5 OT DIIS     0.80E-01    0.2     0.00004770      -373.5563829798 -8.04E-06

  *** SCF run converged in     5 steps ***


  Core-core repulsion energy [eV]:                        1655811.83556260960177
  Core Hamiltonian energy [eV]:                            -16529.66085385598853
  Two-electron integral energy [eV]:                     -3298894.32167616486549
  Electronic energy [eV]:                                -1665976.82169193844311

  Total energy [eV]:                                       -10164.98612932883407

  Atomic reference energy [eV]:                             10135.12221567713459
  Heat of formation [kcal/mol]:                              -688.67826377656820

 ENERGY| Total FORCE_EVAL ( QS ) energy [hartree]           -373.556387844211713

 MD| ***************************************************************************
 MD| Step number                                                             998
 MD| Time [fs]                                                        499.000000
 MD| Conserved quantity [hartree]                            -0.372202755077E+03
 MD| ---------------------------------------------------------------------------
 MD|                                          Instantaneous             Averages
 MD| CPU time per MD step [s]                      3.366798             3.440499
 MD| Energy drift per atom [K]          -0.157825833149E+03  -0.152175424862E+03
 MD| Potential energy [hartree]         -0.373556387844E+03  -0.373351871690E+03
 MD| Kinetic energy [hartree]            0.911690314128E-01   0.295867546467E+00
 MD| Temperature [K]                             202.027149           655.631371
 MD| ***************************************************************************

 Number of electrons:                                                        256
 Number of occupied orbitals:                                                128
 Number of molecular orbitals:                                               128

 Number of orbital functions:                                                192
 Number of independent orbital functions:                                    192

 Extrapolation method: ASPC


 SCF WAVEFUNCTION OPTIMIZATION

  ----------------------------------- OT ---------------------------------------
  Minimizer      : DIIS                : direct inversion
                                         in the iterative subspace
                                         using   7 DIIS vectors
                                         safer DIIS on
  Preconditioner : FULL_SINGLE_INVERSE : inversion of 
                                         H + eS - 2*(Sc)(c^T*H*c+const)(Sc)^T
  Precond_solver : DEFAULT
  stepsize       :    0.08000000                  energy_gap     :    0.08000000
  eps_taylor     :   0.10000E-15                  max_taylor     :             4
  ----------------------------------- OT ---------------------------------------

  Step     Update method      Time    Convergence         Total energy    Change
  ------------------------------------------------------------------------------
     1 OT DIIS     0.80E-01    1.0     0.00068503      -373.5556325161 -3.74E+02
     2 OT DIIS     0.80E-01    0.2     0.00126927      -373.5553721344  2.60E-04
     3 OT DIIS     0.80E-01    0.2     0.00025228      -373.5558371119 -4.65E-04
     4 OT DIIS     0.80E-01    0.2     0.00013981      -373.5558546411 -1.75E-05
     5 OT DIIS     0.80E-01    0.2     0.00004562      -373.5558618041 -7.16E-06

  *** SCF run converged in     5 steps ***


  Core-core repulsion energy [eV]:                        1655864.44205323420465
  Core Hamiltonian energy [eV]:                            -16527.20734468668161
  Two-electron integral energy [eV]:                     -3299004.41331192944199
  Electronic energy [eV]:                                -1666029.41400065156631

  Total energy [eV]:                                       -10164.97194741735620

  Atomic reference energy [eV]:                             10135.12221567713459
  Heat of formation [kcal/mol]:                              -688.35122110266127

 ENERGY| Total FORCE_EVAL ( QS ) energy [hartree]           -373.555866632726975

 MD| ***************************************************************************
 MD| Step number                                                             999
 MD| Time [fs]                                                        499.500000
 MD| Conserved quantity [hartree]                            -0.372202457292E+03
 MD| ---------------------------------------------------------------------------
 MD|                                          Instantaneous             Averages
 MD| CPU time per MD step [s]                      3.406893             3.440465
 MD| Energy drift per atom [K]          -0.156846321786E+03  -0.152180100435E+03
 MD| Potential energy [hartree]         -0.373555866633E+03  -0.373352075889E+03
 MD| Kinetic energy [hartree]            0.907942253873E-01   0.295662267867E+00
 MD| Temperature [K]                             201.196593           655.176481
 MD| ***************************************************************************

 Number of electrons:                                                        256
 Number of occupied orbitals:                                                128
 Number of molecular orbitals:                                               128

 Number of orbital functions:                                                192
 Number of independent orbital functions:                                    192

 Extrapolation method: ASPC


 SCF WAVEFUNCTION OPTIMIZATION

  ----------------------------------- OT ---------------------------------------
  Minimizer      : DIIS                : direct inversion
                                         in the iterative subspace
                                         using   7 DIIS vectors
                                         safer DIIS on
  Preconditioner : FULL_SINGLE_INVERSE : inversion of 
                                         H + eS - 2*(Sc)(c^T*H*c+const)(Sc)^T
  Precond_solver : DEFAULT
  stepsize       :    0.08000000                  energy_gap     :    0.08000000
  eps_taylor     :   0.10000E-15                  max_taylor     :             4
  ----------------------------------- OT ---------------------------------------

  Step     Update method      Time    Convergence         Total energy    Change
  ------------------------------------------------------------------------------
     1 OT DIIS     0.80E-01    1.0     0.00058907      -373.5557631695 -3.74E+02
     2 OT DIIS     0.80E-01    0.2     0.00109900      -373.5555748940  1.88E-04
     3 OT DIIS     0.80E-01    0.2     0.00021669      -373.5559184810 -3.44E-04
     4 OT DIIS     0.80E-01    0.2     0.00012066      -373.5559321622 -1.37E-05
     5 OT DIIS     0.80E-01    0.2     0.00004317      -373.5559372710 -5.11E-06

  *** SCF run converged in     5 steps ***


  Core-core repulsion energy [eV]:                        1655896.99112132075243
  Core Hamiltonian energy [eV]:                            -16524.30214925460677
  Two-electron integral energy [eV]:                     -3299075.32594608608633
  Electronic energy [eV]:                                -1666061.96512229763903

  Total energy [eV]:                                       -10164.97400097678292

  Atomic reference energy [eV]:                             10135.12221567713459
  Heat of formation [kcal/mol]:                              -688.39857731178881

 ENERGY| Total FORCE_EVAL ( QS ) energy [hartree]           -373.555940767262655

 MD| ***************************************************************************
 MD| Step number                                                            1000
 MD| Time [fs]                                                        500.000000
 MD| Conserved quantity [hartree]                            -0.372202089970E+03
 MD| ---------------------------------------------------------------------------
 MD|                                          Instantaneous             Averages
 MD| CPU time per MD step [s]                      3.382597             3.440407
 MD| Energy drift per atom [K]          -0.155638083336E+03  -0.152183558418E+03
 MD| Potential energy [hartree]         -0.373555940767E+03  -0.373352279754E+03
 MD| Kinetic energy [hartree]            0.909223593413E-01   0.295457527958E+00
 MD| Temperature [K]                             201.480533           654.722785
 MD| ***************************************************************************

 -------------------------------------------------------------------------------
 -                                                                             -
 -                                DBCSR STATISTICS                             -
 -                                                                             -
 -------------------------------------------------------------------------------
 COUNTER                                    TOTAL       BLAS       SMM       ACC
 flops     1 x    32 x    32           2624061440     100.0%      0.0%      0.0%     
 flops     1 x     1 x   128           3754602240     100.0%      0.0%      0.0%     
 flops    32 x    32 x   192           3936092160     100.0%      0.0%      0.0%     
 flops     4 x    32 x    32           5248122880     100.0%      0.0%      0.0%     
 flops     1 x     4 x   128           7098306560     100.0%      0.0%      0.0%     
 flops     4 x     1 x   128           7108162560     100.0%      0.0%      0.0%     
 flops     1 x    32 x     1           7375456256     100.0%      0.0%      0.0%     
 flops     4 x     4 x   128          13169840128     100.0%      0.0%      0.0%     
 flops     4 x    32 x     1          14079820800     100.0%      0.0%      0.0%     
 flops     1 x    32 x     4          14079820800     100.0%      0.0%      0.0%     
 flops    24 x   128 x   192          14519107584     100.0%      0.0%      0.0%     
 flops    28 x   128 x   192          16938958848     100.0%      0.0%      0.0%     
 flops    25 x   128 x   192          22686105600     100.0%      0.0%      0.0%     
 flops     4 x    32 x     4          24657936384     100.0%      0.0%      0.0%     
 flops    24 x   128 x   128          37375967232     100.0%      0.0%      0.0%     
 flops    28 x   128 x   128          43605295104     100.0%      0.0%      0.0%     
 flops    25 x   128 x   128          58399948800     100.0%      0.0%      0.0%     
 flops    32 x   128 x   128         114219286528     100.0%      0.0%      0.0%     
 flops    32 x   128 x   192         123381743616     100.0%      0.0%      0.0%     
 flops inhomo. stacks                 30272126976     100.0%      0.0%      0.0%
 flops total                       564.530762E+09     100.0%      0.0%      0.0%
 flops max/rank                    564.530762E+09     100.0%      0.0%      0.0%
 matmuls inhomo. stacks                     29917     100.0%      0.0%      0.0%
 matmuls total                          283433971     100.0%      0.0%      0.0%
 number of processed stacks               1107709     100.0%      0.0%      0.0%
 average stack size                                   255.9       0.0       0.0
 marketing flops                   605.427859E+09
 -------------------------------------------------------------------------------
 # multiplications                          95075
 max memory usage/rank               0.000000E+00
 # max total images/rank                        1
 # max 3D layers                                1
 # MPI messages exchanged                       0
 -------------------------------------------------------------------------------

 -------------------------------------------------------------------------------
 -                                                                             -
 -                                DBM STATISTICS                               -
 -                                                                             -
 -------------------------------------------------------------------------------
    M  x    N  x    K                                          COUNT     PERCENT
 -------------------------------------------------------------------------------

 -------------------------------------------------------------------------------
 -                                                                             -
 -                                GRID STATISTICS                              -
 -                                                                             -
 -------------------------------------------------------------------------------
 LP    KERNEL             BACKEND                              COUNT     PERCENT
 -------------------------------------------------------------------------------

 MEMORY| Estimated peak process memory [MiB]                                   0

 -------------------------------------------------------------------------------
 -                                                                             -
 -                           R E F E R E N C E S                               -
 -                                                                             -
 -------------------------------------------------------------------------------
 
 CP2K version 2025.1, the CP2K developers group (2025).
 CP2K is freely available from https://www.cp2k.org/ .
 
 T. D. Kuehne, M. Iannuzzi, M. Del Ben, V. V. Rybkin, P. Seewald, F. Stein, T. 
 Laino, R. Z. Khaliullin, O. Schuett, F. Schiffmann, D. Golze, J. Wilhelm, S. 
 Chulkov, M. H. Bani-Hashemian, V. Weber, U. Borstnik, M. Taillefumier, A. S. 
 Jakobovits, A. Lazzaro, H. Pabst, T. Mueller, R. Schade, M. Guidon, S. 
 Andermatt, N. Holmberg, G. K. Schenter, A. Hehn, A. Bussy, F. Belleflamme, G. 
 Tabacchi, A. Gloess, M. Lass, I. Bethune, C. J. Mundy, C. Plessl, M. Watkins, 
 J. VandeVondele, M. Krack, J. Hutter.
 J. Chem. Phys. 152, 194103 (2020).
 CP2K: An electronic structure and molecular dynamics software package - 
 Quickstep: Efficient and accurate electronic structure calculations.
 https://doi.org/10.1063/5.0007045

 O. Schuett, P. Messmer, J. Hutter, J. VandeVondele.
 Electronic Structure Calculations on Graphics Processing Units, 173-190 (2016).
 GPU-Accelerated Sparse Matrix-Matrix Multiplication for Linear Scaling Density 
 Functional Theory.
 https://doi.org/10.1002/9781118670712.ch8

 J. Hutter, M. Iannuzzi, F. Schiffmann, J. VandeVondele.
 WIREs Comput Mol Sci. 4, 15-25 (2014).
 CP2K: atomistic simulations of condensed matter systems.
 https://doi.org/10.1002/wcms.1159

 U. Borstnik, J. VandeVondele, V. Weber, J. Hutter.
 Parallel Comput. 40, 47-58 (2014).
 Sparse matrix multiplication: The distributed block-compressed sparse row 
 library.
 https://doi.org/10.1016/j.parco.2014.03.012

 J. J. P. Stewart.
 J. Mol. Model. 13, 1173-1213 (2007).
 Optimization of parameters for semiempirical methods V: Modification of NDDO 
 approximations and application to 70 elements.
 https://doi.org/10.1007/s00894-007-0233-4

 G. Bussi, D. Donadio, M. Parrinello.
 J. Chem. Phys. 126, 014101 (2007).
 Canonical sampling through velocity rescaling.
 https://doi.org/10.1063/1.2408420

 T. D. Khne, M. Krack, F. R. Mohamed, M. Parrinello.
 Phys. Rev. Lett. 98, 066401 (2007).
 Efficient and accurate Car-Parrinello-like approach to Born-Oppenheimer 
 molecular dynamics.
 https://doi.org/10.1103/PhysRevLett.98.066401

 M. Frigo, S. G. Johnson.
 Proc. IEEE 93, 216-231 (2005).
 The design and implementation of FFTW3.
 https://doi.org/10.1109/JPROC.2004.840301

 J. Kolafa.
 J. Comput. Chem. 25, 335-342 (2004).
 Time-reversible always stable predictor-corrector method for molecular dynamics 
 of polarizable molecules.
 https://doi.org/10.1002/jcc.10385

 J. VandeVondele, J. Hutter.
 J. Chem. Phys. 118, 4365-4369 (2003).
 An efficient orbital transformation method for electronic structure 
 calculations.
 https://doi.org/10.1063/1.1543154


 -------------------------------------------------------------------------------
 -                                                                             -
 -                                T I M I N G                                  -
 -                                                                             -
 -------------------------------------------------------------------------------
 SUBROUTINE                       CALLS  ASD         SELF TIME        TOTAL TIME
                                MAXIMUM       AVERAGE  MAXIMUM  AVERAGE  MAXIMUM
 CP2K                                 1  1.0    0.009    0.009 3440.429 3440.429
 qs_mol_dyn_low                       1  2.0    0.022    0.022 3440.414 3440.414
 qs_forces                         1001  4.0    0.070    0.070 3438.211 3438.211
 velocity_verlet                   1000  3.0    0.065    0.065 3423.997 3423.997
 rebuild_ks_matrix                 6154  8.5    0.009    0.009 2853.197 2853.197
 build_se_fock_matrix              6154  9.5    8.575    8.575 2853.188 2853.188
 build_fock_matrix_coulomb         6154 10.5 2753.878 2753.878 2776.426 2776.426
 qs_energies                       1001  5.0    0.027    0.027 2078.495 2078.495
 scf_env_do_scf                    1001  6.0    0.017    0.017 1995.924 1995.924
 qs_ks_update_qs_env               6154  8.0    0.016    0.016 1569.797 1569.797
 qs_ks_update_qs_env_forces        1001  5.0    0.004    0.004 1284.142 1284.142
 scf_env_do_scf_inner_loop         5153  7.0    0.276    0.276 1049.020 1049.020
 init_scf_loop                     1001  7.0    0.013    0.013  945.808  945.808
 qs_scf_new_mos                    5153  8.0    0.013    0.013  369.857  369.857
 qs_scf_loop_do_ot                 5153  9.0    0.019    0.019  369.844  369.844
 ot_scf_mini                       5153 10.0    0.049    0.049  350.864  350.864
 dbcsr_multiply_generic           95075 12.9    6.387    6.387  314.724  314.724
 ot_mini                           5153 11.0    0.018    0.018  255.151  255.151
 qs_ot_get_derivative              5153 12.0    0.027    0.027  205.608  205.608
 dbcsr_finalize                  283215 13.6   42.976   42.976  150.632  150.632
 qs_ot_get_derivative_taylor       5104 13.0    0.078    0.078  146.205  146.205
 make_m2s                        190150 13.9    1.110    1.110  139.458  139.458
 dbcsr_add_d                      93704 13.1    0.076    0.076  103.319  103.319
 dbcsr_add_anytype                93704 14.1    7.587    7.587  103.243  103.243
 dbcsr_merge_all                 249786 14.9   92.538   92.538  102.069  102.069
 se_core_core_interaction          2002  6.0   91.862   91.862   91.863   91.863
 qs_energies_init_hamiltonians     1001  6.0    0.006    0.006   72.905   72.905
 make_images                     190150 14.9   44.401   44.401   69.980   69.980
 -------------------------------------------------------------------------------

 The number of warnings for this run is : 2
 
 -------------------------------------------------------------------------------
  **** **** ******  **  PROGRAM ENDED AT                 2026-02-16 23:16:37.976
 ***** ** ***  *** **   PROGRAM RAN ON                     MacBook-Air-950.local
 **    ****   ******    PROGRAM RAN BY                           mackenziehenley
 ***** **    ** ** **   PROGRAM PROCESS ID                                 70947
  **** **  *******  **  PROGRAM STOPPED IN /Users/mackenziehenley/cp2k/D2O_ice/C
                                           P2K
