      96
 i =        0, time =        0.000, E =      -372.1971932631
  O         0.0000000000        2.6085000000        0.4597000000
  H         0.7570000000        2.6085000000        0.4597000000
  H        -0.3790000000        3.2645000000        0.4597000000
  O         2.2590000000        1.3042000000        2.2988000000
  H         3.0160000000        1.3042000000        2.2988000000
  H         1.8800000000        1.9602000000        2.2988000000
  O         0.0000000000        2.6085000000        4.1377000000
  H         0.7570000000        2.6085000000        4.1377000000
  H        -0.3790000000        3.2645000000        4.1377000000
  O         2.2590000000        1.3042000000        5.9768000000
  H         3.0160000000        1.3042000000        5.9768000000
  H         1.8800000000        1.9602000000        5.9768000000
  O         0.0000000000        2.6085000000        7.8157000000
  H         0.7570000000        2.6085000000        7.8157000000
  H        -0.3790000000        3.2645000000        7.8157000000
  O         2.2590000000        1.3042000000        9.6547000000
  H         3.0160000000        1.3042000000        9.6547000000
  H         1.8800000000        1.9602000000        9.6547000000
  O         0.0000000000        2.6085000000       11.4938000000
  H         0.7570000000        2.6085000000       11.4938000000
  H        -0.3790000000        3.2645000000       11.4938000000
  O         2.2590000000        1.3042000000       13.3327000000
  H         3.0160000000        1.3042000000       13.3327000000
  H         1.8800000000        1.9602000000       13.3327000000
  O        -2.2590000000        6.5212000000        0.4597000000
  H        -1.5020000000        6.5212000000        0.4597000000
  H        -2.6380000000        7.1772000000        0.4597000000
  O         0.0000000000        5.2169000000        2.2988000000
  H         0.7570000000        5.2169000000        2.2988000000
  H        -0.3790000000        5.8729000000        2.2988000000
  O        -2.2590000000        6.5212000000        4.1377000000
  H        -1.5020000000        6.5212000000        4.1377000000
  H        -2.6380000000        7.1772000000        4.1377000000
  O         0.0000000000        5.2169000000        5.9768000000
  H         0.7570000000        5.2169000000        5.9768000000
  H        -0.3790000000        5.8729000000        5.9768000000
  O        -2.2590000000        6.5212000000        7.8157000000
  H        -1.5020000000        6.5212000000        7.8157000000
  H        -2.6380000000        7.1772000000        7.8157000000
  O         0.0000000000        5.2169000000        9.6547000000
  H         0.7570000000        5.2169000000        9.6547000000
  H        -0.3790000000        5.8729000000        9.6547000000
  O        -2.2590000000        6.5212000000       11.4938000000
  H        -1.5020000000        6.5212000000       11.4938000000
  H        -2.6380000000        7.1772000000       11.4938000000
  O         0.0000000000        5.2169000000       13.3327000000
  H         0.7570000000        5.2169000000       13.3327000000
  H        -0.3790000000        5.8729000000       13.3327000000
  O         4.5180000000        2.6085000000        0.4597000000
  H         5.2750000000        2.6085000000        0.4597000000
  H         4.1390000000        3.2645000000        0.4597000000
  O         6.7770000000        1.3042000000        2.2988000000
  H         7.5340000000        1.3042000000        2.2988000000
  H         6.3980000000        1.9602000000        2.2988000000
  O         4.5180000000        2.6085000000        4.1377000000
  H         5.2750000000        2.6085000000        4.1377000000
  H         4.1390000000        3.2645000000        4.1377000000
  O         6.7770000000        1.3042000000        5.9768000000
  H         7.5340000000        1.3042000000        5.9768000000
  H         6.3980000000        1.9602000000        5.9768000000
  O         4.5180000000        2.6085000000        7.8157000000
  H         5.2750000000        2.6085000000        7.8157000000
  H         4.1390000000        3.2645000000        7.8157000000
  O         6.7770000000        1.3042000000        9.6547000000
  H         7.5340000000        1.3042000000        9.6547000000
  H         6.3980000000        1.9602000000        9.6547000000
  O         4.5180000000        2.6085000000       11.4938000000
  H         5.2750000000        2.6085000000       11.4938000000
  H         4.1390000000        3.2645000000       11.4938000000
  O         6.7770000000        1.3042000000       13.3327000000
  H         7.5340000000        1.3042000000       13.3327000000
  H         6.3980000000        1.9602000000       13.3327000000
  O         2.2590000000        6.5212000000        0.4597000000
  H         3.0160000000        6.5212000000        0.4597000000
  H         1.8800000000        7.1772000000        0.4597000000
  O         4.5180000000        5.2169000000        2.2988000000
  H         5.2750000000        5.2169000000        2.2988000000
  H         4.1390000000        5.8729000000        2.2988000000
  O         2.2590000000        6.5212000000        4.1377000000
  H         3.0160000000        6.5212000000        4.1377000000
  H         1.8800000000        7.1772000000        4.1377000000
  O         4.5180000000        5.2169000000        5.9768000000
  H         5.2750000000        5.2169000000        5.9768000000
  H         4.1390000000        5.8729000000        5.9768000000
  O         2.2590000000        6.5212000000        7.8157000000
  H         3.0160000000        6.5212000000        7.8157000000
  H         1.8800000000        7.1772000000        7.8157000000
  O         4.5180000000        5.2169000000        9.6547000000
  H         5.2750000000        5.2169000000        9.6547000000
  H         4.1390000000        5.8729000000        9.6547000000
  O         2.2590000000        6.5212000000       11.4938000000
  H         3.0160000000        6.5212000000       11.4938000000
  H         1.8800000000        7.1772000000       11.4938000000
  O         4.5180000000        5.2169000000       13.3327000000
  H         5.2750000000        5.2169000000       13.3327000000
  H         4.1390000000        5.8729000000       13.3327000000
      96
 i =        2, time =        1.000, E =      -372.3144536962
  O         0.0031016818        2.6054842545        0.4592365666
  H         0.7699900601        2.6058932480        0.4568960378
  H        -0.3859317234        3.2683213749        0.4536949016
  O         2.2631520076        1.2999576386        2.3006022765
  H         3.0375672551        1.2997385896        2.3010442021
  H         1.8796257849        1.9639928413        2.3078941521
  O        -0.0004549095        2.6060705231        4.1398224543
  H         0.7570428516        2.6011380126        4.1331950198
  H        -0.3906874753        3.2787710844        4.1320472334
  O         2.2581227676        1.3079037718        5.9754780204
  H         3.0231159807        1.3150588648        5.9728017949
  H         1.8800180241        1.9665647983        5.9851731869
  O        -0.0004679989        2.6084001660        7.8131193569
  H         0.7624006473        2.6074616614        7.8219819602
  H        -0.3841996623        3.2846063550        7.8163391275
  O         2.2630097398        1.3046938067        9.6555354338
  H         3.0251937831        1.2949963588        9.6623470353
  H         1.8735922577        1.9710291227        9.6574959113
  O         0.0008534776        2.6076290020       11.4934775342
  H         0.7626407816        2.6145441934       11.4973308965
  H        -0.3798346850        3.2723033734       11.5075532713
  O         2.2560276600        1.3034138092       13.3318752730
  H         3.0344984469        1.3044975531       13.3293242740
  H         1.8577902567        1.9663876326       13.3341639894
  O        -2.2619010975        6.5219697953        0.4584052880
  H        -1.4824701290        6.5282379751        0.4684359932
  H        -2.6392991258        7.1766975380        0.4631228012
  O         0.0003180338        5.2161485037        2.2990077123
  H         0.7561117769        5.2156023574        2.3030025281
  H        -0.3916584345        5.8813751827        2.2967309891
  O        -2.2596779987        6.5231988625        4.1399820518
  H        -1.4965888044        6.5251369338        4.1444867990
  H        -2.6293704260        7.1931843132        4.1457102396
  O         0.0003539662        5.2137519652        5.9752497292
  H         0.7788414252        5.2221301423        5.9727932024
  H        -0.3915898549        5.8743525654        5.9782756377
  O        -2.2634072438        6.5221463674        7.8147688729
  H        -1.4952457695        6.5328961709        7.8194432375
  H        -2.6424809703        7.1839144760        7.8157984759
  O        -0.0038491506        5.2158042104        9.6551451976
  H         0.7679628586        5.2181406438        9.6446067115
  H        -0.3869571069        5.8744310207        9.6513848518
  O        -2.2606998351        6.5191959717       11.4930085798
  H        -1.4909351410        6.5172533867       11.4934299157
  H        -2.6531490872        7.1749384036       11.4934631282
  O        -0.0010483107        5.2148266408       13.3305541854
  H         0.7703590532        5.2186136459       13.3198163085
  H        -0.3803382081        5.8904060907       13.3329781564
  O         4.5140062191        2.6069439630        0.4589370748
  H         5.2887268242        2.6054386016        0.4620100169
  H         4.1382526170        3.2727755351        0.4597102831
  O         6.7791510821        1.3009207804        2.3015517435
  H         7.5472030149        1.3179426520        2.3054784826
  H         6.3938784314        1.9692244036        2.3004560243
  O         4.5139356555        2.6068759637        4.1339016953
  H         5.2795553308        2.6024194562        4.1366007779
  H         4.1424413903        3.2718552179        4.1344321583
  O         6.7806629551        1.3021989553        5.9799709459
  H         7.5451679531        1.3035360704        5.9860169381
  H         6.3954805468        1.9654299905        5.9746214435
  O         4.5163928109        2.6091124915        7.8182536201
  H         5.2877554032        2.6016170010        7.8168986818
  H         4.1333578615        3.2742038699        7.8136354414
  O         6.7788319351        1.3014008176        9.6566263880
  H         7.5379225678        1.3102850542        9.6459628663
  H         6.3940394363        1.9629889302        9.6634511550
  O         4.5158560963        2.6092591997       11.4967891530
  H         5.2924428418        2.6133437070       11.5043463537
  H         4.1377140442        3.2745368055       11.4950781865
  O         6.7788244235        1.3038951231       13.3274095810
  H         7.5484931923        1.3105905506       13.3474659673
  H         6.3928028444        1.9625400917       13.3296597462
  O         2.2599201840        6.5161933977        0.4613175612
  H         3.0215601963        6.5304692547        0.4546332786
  H         1.8698512642        7.1816857485        0.4568175447
  O         4.5157080632        5.2117659863        2.2980398561
  H         5.2783651703        5.2074736126        2.3109119850
  H         4.1306241037        5.8813501329        2.2894491637
  O         2.2593497578        6.5195445034        4.1350847661
  H         3.0268593048        6.5345366456        4.1343083387
  H         1.8722459334        7.1909529615        4.1504111206
  O         4.5130652422        5.2168972808        5.9746284430
  H         5.2835353307        5.2057215074        5.9765651883
  H         4.1306806974        5.8885028325        5.9824211387
  O         2.2561222209        6.5193278492        7.8145867215
  H         3.0232284620        6.5245502277        7.8221054537
  H         1.8747097861        7.1955303066        7.8147174675
  O         4.5194472580        5.2141032187        9.6561437925
  H         5.2954009174        5.2244399930        9.6481795107
  H         4.1327633917        5.8848312725        9.6532471595
  O         2.2569920417        6.5201690817       11.4914265682
  H         3.0284928149        6.5223480116       11.4945649214
  H         1.8731301147        7.1857305413       11.4813738042
  O         4.5167164746        5.2174173614       13.3306125080
  H         5.2781726496        5.2184494644       13.3413830768
  H         4.1367064089        5.8828735611       13.3314230764
      96
 i =        4, time =        2.000, E =      -372.5429229963
  O         0.0049688193        2.6004404292        0.4587987739
  H         0.7996720820        2.6045427148        0.4540501791
  H        -0.4000582206        3.2872051393        0.4476007453
  O         2.2662077408        1.2935831677        2.3023698096
  H         3.0750001340        1.2968511546        2.3033057707
  H         1.8719347482        1.9832631884        2.3171002312
  O        -0.0024531017        2.6018005170        4.1419734466
  H         0.7755572515        2.5949521427        4.1285417087
  H        -0.4086453749        3.3066386736        4.1262729780
  O         2.2561645914        1.3094472434        5.9741405239
  H         3.0481754182        1.3263564276        5.9687705606
  H         1.8708209571        1.9893106095        5.9937340283
  O        -0.0024002882        2.6063548269        7.8105158538
  H         0.7858777182        2.6076278659        7.8284508035
  H        -0.3959666870        3.3189436966        7.8170541626
  O         2.2656595355        1.3032505013        9.6563379744
  H         3.0516614747        1.2871762731        9.6701122820
  H         1.8606548533        1.9957532942        9.6603380949
  O         0.0004242751        2.6047258284       11.4931054940
  H         0.7867074181        2.6210803903       11.5009405660
  H        -0.3891008683        3.2958089672       11.5215408835
  O         2.2519741108        1.3004903427       13.3310547808
  H         3.0677008252        1.3072797072       13.3259284980
  H         1.8297567730        1.9869894000       13.3356581055
  O        -2.2655824091        6.5204052192        0.4570749838
  H        -1.4478426814        6.5361733032        0.4773172293
  H        -2.6496057791        7.1938489972        0.4666660591
  O        -0.0008234125        5.2135185439        2.2992086852
  H         0.7741329352        5.2153141870        2.3072713718
  H        -0.4114399851        5.9036706492        2.2946363190
  O        -2.2616252118        6.5231233043        4.1422216058
  H        -1.4725980452        6.5292502722        4.1513404462
  H        -2.6294274802        7.2253495283        4.1538056591
  O        -0.0003042944        5.2084205108        5.9737056100
  H         0.8158680575        5.2293325933        5.9687683114
  H        -0.4112517476        5.8911981037        5.9798101066
  O        -2.2688960537        6.5209318054        7.8138255898
  H        -1.4710624956        6.5451811684        7.8232739058
  H        -2.6557607287        7.2071443138        7.8159236264
  O        -0.0086858271        5.2125426720        9.6556285226
  H         0.7951882766        5.2205520000        9.6343473286
  H        -0.4030356762        5.8919464579        9.6479778030
  O        -2.2634592312        6.5151170010       11.4922167572
  H        -1.4642186921        6.5146558127       11.4930810073
  H        -2.6755711212        7.1880130456       11.4931462134
  O        -0.0033730065        5.2106693768       13.3284457718
  H         0.8009382308        5.2218493054       13.3067708502
  H        -0.3886380523        5.9228456906       13.3332861234
  O         4.5089771188        2.6032117725        0.4581665916
  H         5.3184208881        2.6034633956        0.4643729063
  H         4.1297305938        3.2973664135        0.4597485516
  O         6.7800408675        1.2955526579        2.3042786232
  H         7.5783394410        1.3329298934        2.3122114667
  H         6.3818388593        1.9935420136        2.3020843966
  O         4.5087443501        2.6031663071        4.1301153043
  H         5.3016042656        2.5966804165        4.1355684486
  H         4.1373359202        3.2955785122        4.1311958162
  O         6.7830819750        1.2981671556        5.9831224347
  H         7.5738800260        1.3039379363        5.9953074345
  H         6.3852251162        1.9857056936        5.9723463893
  O         4.5136524119        2.6076313633        7.8208093370
  H         5.3163584286        2.5960802768        7.8180545254
  H         4.1207710004        3.2992281273        7.8114848211
  O         6.7793673517        1.2966006832        9.6585535885
  H         7.5607799997        1.3169732681        9.6370261506
  H         6.3814961368        1.9810580718        9.6723046725
  O         4.5126877603        2.6078018097       11.4997469819
  H         5.3257095881        2.6193870425       11.5149797627
  H         4.1286075744        3.3009487462       11.4963205313
  O         6.7795809216        1.3014488216       13.3220856432
  H         7.5796525667        1.3181258241       13.3625725533
  H         6.3794281541        1.9806264533       13.3267283599
  O         2.2594795594        6.5092044747        0.4629592615
  H         3.0455680669        6.5407108115        0.4494233858
  H         1.8519077498        7.2011796531        0.4538514611
  O         4.5120718352        5.2046954924        2.2972677027
  H         5.2995586854        5.1993176136        2.3232386265
  H         4.1153690798        5.9040606758        2.2800039004
  O         2.2583629269        6.5158391938        4.1324449369
  H         3.0554781758        6.5491551296        4.1309427808
  H         1.8571768613        7.2197122968        4.1633660434
  O         4.5069116165        5.2148570317        5.9724406188
  H         5.3083712926        5.1962306457        5.9763933649
  H         4.1160974509        5.9184962481        5.9881736410
  O         2.2518783564        6.5154406020        7.8134555682
  H         3.0482107208        6.5291364125        7.8286527937
  H         1.8624867124        7.2286734680        7.8137566280
  O         4.5197086634        5.2091704554        9.6576112243
  H         5.3320954539        5.2338506397        9.6415228109
  H         4.1196505471        5.9117975620        9.6517230102
  O         2.2538391066        6.5170310865       11.4890874993
  H         3.0573207617        6.5247728137       11.4953712758
  H         1.8589387427        7.2097940397       11.4688004261
  O         4.5141652029        5.2159150321       13.3285016869
  H         5.2997545525        5.2206603614       13.3502670712
  H         4.1262702273        5.9080599752       13.3301824304
      96
 i =        6, time =        3.000, E =      -372.8434457438
  O         0.0055131434        2.5932167027        0.4584134570
  H         0.8425036006        2.6073365692        0.4510651236
  H        -0.4171269841        3.3194613462        0.4413023060
  O         2.2681256570        1.2848581779        2.3040739050
  H         3.1244910972        1.2984641675        2.3056710681
  H         1.8610564186        2.0168305432        2.3265556111
  O        -0.0062291914        2.5956205867        4.1442019687
  H         0.8097691506        2.5928555784        4.1235117165
  H        -0.4282286452        3.3457380745        4.1202096560
  O         2.2531171117        1.3086727105        5.9727613966
  H         3.0879366690        1.3404484490        5.9647238593
  H         1.8557114965        2.0273374514        6.0026702007
  O        -0.0060126885        2.6022393364        7.8078454031
  H         0.8247715363        2.6118734304        7.8353331034
  H        -0.4099210226        3.3656232270        7.8179758343
  O         2.2668022577        1.2997563915        9.6570747118
  H         3.0919116883        1.2837312958        9.6781487219
  H         1.8458336529        2.0322905103        9.6633320632
  O        -0.0013918369        2.5996640954       11.4926257452
  H         0.8264279806        2.6305915935       11.5048101344
  H        -0.4031806065        3.3335388760       11.5360451402
  O         2.2467845950        1.2951780874       13.3302383649
  H         3.1113353266        1.3159995708       13.3225030278
  H         1.8005961482        2.0205613047       13.3371914515
  O        -2.2699626160        6.5162157035        0.4556622664
  H        -1.4021567154        6.5476411213        0.4865080493
  H        -2.6655096168        7.2283196097        0.4705314609
  O        -0.0035964140        5.2089411514        2.2993942042
  H         0.8081227969        5.2188230102        2.3116685493
  H        -0.4340571283        5.9375470201        2.2925278208
  O        -2.2649591043        6.5208522554        4.1443860237
  H        -1.4326189951        6.5357654595        4.1583864560
  H        -2.6346374453        7.2724248632        4.1621183157
  O        -0.0019832203        5.2006327705        5.9721628986
  H         0.8640188906        5.2416761415        5.9647233220
  H        -0.4338681850        5.9224428391        5.9814481411
  O        -2.2754930795        6.5173752457        7.8128517150
  H        -1.4326218489        6.5605262699        7.8272825027
  H        -2.6744492429        7.2458530678        7.8161309136
  O        -0.0145093017        5.2069012809        9.6561968107
  H         0.8348580771        5.2268934159        9.6237214713
  H        -0.4234304303        5.9243944663        9.6442969486
  O        -2.2673044417        6.5087871038       11.4914210414
  H        -1.4259534899        6.5164092766       11.4927693307
  H        -2.7009390495        7.2148132616       11.4928608228
  O        -0.0070943631        5.2042615977       13.3264018713
  H         0.8456031238        5.2293913353       13.2933982706
  H        -0.3998208997        5.9687622813       13.3335733436
  O         4.5028662613        2.5970855362        0.4573750253
  H         5.3605141690        2.6052767547        0.4668454388
  H         4.1173845509        3.3372876588        0.4598668704
  O         6.7795967696        1.2879221375        2.3069713861
  H         7.6244024423        1.3518641972        2.3190630716
  H         6.3654537730        2.0318427169        2.3036905286
  O         4.5023525104        2.5972267295        4.1263305416
  H         5.3380102527        2.5936302171        4.1346552795
  H         4.1274150137        3.3344592333        4.1280229580
  O         6.7841717153        1.2919561257        5.9862520660
  H         7.6168073624        1.3081507570        6.0047336784
  H         6.3712269412        2.0194642652        5.9699334893
  O         4.5096941348        2.6038678827        7.8233849024
  H         5.3570926417        2.5948344786        7.8191057795
  H         4.1056471528        3.3381187255        7.8091631225
  O         6.7785215120        1.2896821560        9.6604954660
  H         7.5996870433        1.3267766146        9.6277199483
  H         6.3639132185        2.0128315100        9.6813150806
  O         4.5084704352        2.6038972295       11.5026575472
  H         5.3711605504        2.6293641695       11.5257988074
  H         4.1155270873        3.3428273198       11.4975561840
  O         6.7792653547        1.2966564331       13.3166568524
  H         7.6237664628        1.3295742261       13.3783675095
  H         6.3616086958        2.0133224806       13.3241418586
  O         2.2575568357        6.5000948828        0.4646630963
  H         3.0852430101        6.5546935650        0.4438871251
  H         1.8299234424        7.2340157846        0.4506764204
  O         4.5069403016        5.1955666749        2.2964635764
  H         5.3353995183        5.1952947137        2.3359523838
  H         4.0976070455        5.9391380682        2.2704542640
  O         2.2559104508        6.5099221114        4.1297375945
  H         3.0990075904        6.5678894824        4.1277163343
  H         1.8386761396        7.2619269138        4.1768053951
  O         4.4994000815        5.2106020424        5.9702045534
  H         5.3459524020        5.1914926079        5.9763960916
  H         4.0998976774        5.9612251482        5.9942006174
  O         2.2460971831        6.5093907233        7.8122794000
  H         3.0881996654        6.5377439640        7.8354981881
  H         1.8474427479        7.2750091128        7.8128785617
  O         4.5187133572        5.2018808355        9.6591362572
  H         5.3815889610        5.2481203072        9.6345819751
  H         4.1037065678        5.9525745274        9.6500057355
  O         2.2494634497        6.5115895011       11.4868057911
  H         3.0989971195        6.5313518988       11.4961834105
  H         1.8415419548        7.2480646372       11.4559297231
  O         4.5102403636        5.2122633240       13.3263287207
  H         5.3367926000        5.2260702109       13.3595636930
  H         4.1114778062        5.9469546319       13.3290743620
      96
 i =        8, time =        4.000, E =      -373.1546827894
  O         0.0046152327        2.5835971884        0.4581080464
  H         0.8952490413        2.6172715629        0.4478224447
  H        -0.4329367584        3.3637946608        0.4346978190
  O         2.2688432622        1.2736224794        2.3056850935
  H         3.1824633532        1.3072984191        2.3082578539
  H         1.8510337600        2.0632673491        2.3363745781
  O        -0.0119375679        2.5873413010        4.1465596391
  H         0.8566046245        2.5979577180        4.1178535852
  H        -0.4451150466        3.3944551450        4.1136847204
  O         2.2489121451        1.3054197066        5.9713138565
  H         3.1387536938        1.3601530615        5.9607762486
  H         1.8388593950        2.0791046544        6.0120795232
  O        -0.0113943558        2.5959834795        7.8050676492
  H         0.8757002475        2.6228381822        7.8428041924
  H        -0.4219497337        3.4225478064        7.8192631853
  O         2.2662834815        1.2939612169        9.6577094284
  H         3.1427996460        1.2879029944        9.6865815927
  H         1.8334668563        2.0794006942        9.6666330438
  O        -0.0046707180        2.5923178940       11.4919832008
  H         0.8782915242        2.6458241030       11.5091864685
  H        -0.4179314071        3.3837405131       11.5512595871
  O         2.2403941027        1.2872493315       13.3294259121
  H         3.1619358121        1.3335399082       13.3190772414
  H         1.7742705740        2.0660516420       13.3387377025
  O        -2.2750538751        6.5092995702        0.4541225239
  H        -1.3494300352        6.5650971764        0.4961346793
  H        -2.6828639838        7.2784424485        0.4749484464
  O        -0.0081259777        5.2021675193        2.2995558059
  H         0.8547414044        5.2294173387        2.3162233497
  H        -0.4552075859        5.9817026577        2.2904407371
  O        -2.2697566303        6.5163156042        4.1464421606
  H        -1.3801663161        6.5472243395        4.1657580240
  H        -2.6408519232        7.3324069726        4.1707718279
  O        -0.0046833678        5.1902464943        5.9706205390
  H         0.9193829814        5.2617339547        5.9606870657
  H        -0.4555509372        5.9666646193        5.9831744001
  O        -2.2832318349        6.5113742815        7.8118321482
  H        -1.3836674216        6.5814848941        7.8315274637
  H        -2.6945117450        7.2982828183        7.8164849447
  O        -0.0213853330        5.1986917303        9.6568971126
  H         0.8833649365        5.2399940194        9.6125772224
  H        -0.4440291583        5.9704568969        9.6401112308
  O        -2.2723654758        6.4999370442       11.4906143219
  H        -1.3794220785        6.5256826065       11.4925238736
  H        -2.7249083704        7.2542947633       11.4926348640
  O        -0.0122288772        5.1955825496       13.3244489690
  H         0.9005924346        5.2435653771       13.2796261207
  H        -0.4100204845        6.0260059362       13.3337051751
  O         4.4956143955        2.5884665184        0.4565519746
  H         5.4113968721        2.6133868259        0.4694667015
  H         4.1053260175        3.3907972268        0.4601123052
  O         6.7778389864        1.2779851270        2.3096189219
  H         7.6814225044        1.3771076346        2.3260715230
  H         6.3485048866        2.0821400672        2.3053182726
  O         4.4946456685        2.5889247028        4.1225395727
  H         5.3853851071        2.5960169978        4.1338923453
  H         4.1170019768        3.3867856006        4.1249503083
  O         6.7838360144        1.2833699511        5.9893581698
  H         7.6705109171        1.3191397440        6.0142713319
  H         6.3576532150        2.0653064099        5.9674164623
  O         4.5043962608        2.5976328149        7.8260067977
  H         5.4066990294        2.6007621663        7.8199361719
  H         4.0922431451        3.3894798531        7.8065667171
  O         6.7762319044        1.2804634384        9.6624632274
  H         7.6509705864        1.3426584996        9.6180202153
  H         6.3454291796        2.0568003432        9.6904093603
  O         4.5031862108        2.5974694281       11.5055033591
  H         5.4249745210        2.6456555920       11.5368397022
  H         4.1024627048        3.3983759695       11.4988879705
  O         6.7778383103        1.2893341757       13.3110578995
  H         7.6770961469        1.3477412060       13.3950512712
  H         6.3433685309        2.0592977932       13.3222357804