      96
 i =        0, time =        0.000, E =      -372.1140277005
  O         0.0001688319       -0.0000940538       -0.0000215701
  H         0.0001731159       -0.0001092424       -0.0001248601
  H        -0.0001057971       -0.0001860733       -0.0002752037
  O         0.0002163142       -0.0001469111        0.0000822323
  H         0.0005604660       -0.0002081789        0.0000989769
  H         0.0001975105       -0.0001964346        0.0004216062
  O         0.0000080277       -0.0000671283        0.0000969659
  H        -0.0004319275       -0.0003298704       -0.0002059621
  H        -0.0003266630        0.0002935239       -0.0002576547
  O        -0.0000138684        0.0002170046       -0.0000608764
  H        -0.0001136430        0.0004990844       -0.0001812080
  H         0.0002278749       -0.0000848615        0.0003851943
  O         0.0000084924        0.0000441728       -0.0001182379
  H        -0.0001977919       -0.0000570739        0.0002863489
  H        -0.0000275534        0.0005407034        0.0000298654
  O         0.0002117069        0.0000681098        0.0000386741
  H        -0.0000137459       -0.0004193542        0.0003469928
  H        -0.0000848480        0.0001339340        0.0001282468
  O         0.0000671782        0.0000076951       -0.0000145390
  H        -0.0001847815        0.0002767758        0.0001609153
  H         0.0001850267       -0.0000232325        0.0006287466
  O        -0.0001117567        0.0000072033       -0.0000376737
  H         0.0004448250        0.0000194549       -0.0001511852
  H        -0.0008109107       -0.0000641540        0.0000627672
  O        -0.0001047166        0.0000891574       -0.0000596239
  H         0.0004486076        0.0003078907        0.0004014281
  H         0.0001656288       -0.0004381976        0.0001582656
  O         0.0000432610        0.0000114333        0.0000096532
  H        -0.0004840851       -0.0000562805        0.0001952881
  H        -0.0003670531        0.0000227138       -0.0000987548
  O        -0.0000029727        0.0001390404        0.0001035334
  H        -0.0001924841        0.0001870936        0.0003141681
  H         0.0006155137        0.0003450868        0.0003707987
  O         0.0000426081       -0.0000935936       -0.0000702277
  H         0.0005685247        0.0002202625       -0.0001836246
  H        -0.0003579539       -0.0003132648        0.0000620556
  O        -0.0001741068        0.0000915105       -0.0000420406
  H        -0.0001290930        0.0005373251        0.0001702182
  H         0.0000163812       -0.0000791674        0.0000002876
  O        -0.0001494441       -0.0000012062        0.0000202259
  H         0.0000638852        0.0000476157       -0.0004601310
  H        -0.0001421278       -0.0003075248       -0.0001520014
  O        -0.0000516684       -0.0000449130       -0.0000371056
  H         0.0000887665       -0.0001774043       -0.0000153154
  H        -0.0004797928       -0.0004805795       -0.0000106833
  O        -0.0000218509       -0.0000502192       -0.0000972733
  H         0.0001893637        0.0000843017       -0.0005944019
  H         0.0001504614        0.0004424220        0.0000097304
  O        -0.0001551889       -0.0000228704       -0.0000345561
  H         0.0001988107       -0.0001385629        0.0001067949
  H         0.0001786994       -0.0000089910       -0.0000034408
  O         0.0001257251       -0.0001029632        0.0001254491
  H         0.0001664049        0.0006281459        0.0003091691
  H         0.0000292155        0.0000412416        0.0000768029
  O        -0.0001568754       -0.0000261036       -0.0001735427
  H        -0.0002370451       -0.0002719304       -0.0000519866
  H         0.0003752760       -0.0000543190       -0.0001502658
  O         0.0001948651       -0.0000453106        0.0001454911
  H         0.0000744438       -0.0000295016        0.0004199658
  H         0.0001024002       -0.0001277406       -0.0001001554
  O        -0.0000456838        0.0000763097        0.0001184112
  H         0.0001533474       -0.0003157444        0.0000494083
  H        -0.0000464421        0.0000593596       -0.0001016875
  O         0.0001118224       -0.0000814105        0.0000875823
  H        -0.0002691991        0.0002793802       -0.0003958713
  H         0.0000421294       -0.0002424323        0.0004018123
  O        -0.0000718605        0.0000830523        0.0001361143
  H         0.0003738182        0.0002189589        0.0004846647
  H         0.0001599870        0.0000765107        0.0000624611
  O         0.0001106970        0.0000344993       -0.0002408456
  H         0.0002233190        0.0002853850        0.0006706923
  H        -0.0000168672       -0.0002686677       -0.0001446423
  O         0.0000703558       -0.0001818539        0.0000734056
  H        -0.0001856293        0.0004253675       -0.0002287173
  H        -0.0002457349       -0.0001738754       -0.0001301515
  O        -0.0000772945       -0.0001898645       -0.0000350378
  H        -0.0002809768       -0.0004316441        0.0005517303
  H        -0.0001710913        0.0000303394       -0.0004233921
  O         0.0000448371       -0.0000293778       -0.0001196239
  H         0.0000606531        0.0006105294       -0.0001547542
  H        -0.0001439701        0.0002591060        0.0005803803
  O        -0.0001980519        0.0000458668       -0.0001005186
  H        -0.0000380577       -0.0005120713       -0.0000044280
  H        -0.0001762305        0.0003509128        0.0002594162
  O        -0.0001024843       -0.0000391913       -0.0000517057
  H        -0.0001106449        0.0001490684        0.0002934728
  H        -0.0000301409        0.0004719618       -0.0000394487
  O         0.0000932126       -0.0000800892        0.0000671297
  H         0.0005039194        0.0003352889       -0.0003032991
  H        -0.0000727651        0.0001769749       -0.0000700043
  O        -0.0000647150        0.0000000701       -0.0001072712
  H         0.0001466562        0.0000524884        0.0000282383
  H        -0.0001022650        0.0000137366       -0.0005729900
  O        -0.0000303878        0.0000722076       -0.0000958277
  H        -0.0003034073        0.0000688731        0.0003995356
  H         0.0001147720        0.0000749325       -0.0000576604
      96
 i =        1, time =        1.000, E =      -372.3148682347
  O         0.0001141818       -0.0001797877       -0.0000209118
  H         0.0009799537       -0.0001195146       -0.0001321784
  H        -0.0004856128        0.0005083194       -0.0002729779
  O         0.0001701772       -0.0002381392        0.0000832286
  H         0.0013420154       -0.0001908493        0.0001182043
  H        -0.0002102766        0.0005080855        0.0003961914
  O        -0.0000431389       -0.0001357978        0.0000990226
  H         0.0003449304       -0.0003868936       -0.0002083505
  H        -0.0007045941        0.0009021740       -0.0002720920
  O        -0.0000676594        0.0001161893       -0.0000650746
  H         0.0007584499        0.0005195286       -0.0001651613
  H        -0.0002093676        0.0006897541        0.0004008614
  O        -0.0000580880       -0.0000577487       -0.0001124052
  H         0.0006955482       -0.0000028176        0.0002902737
  H        -0.0003970821        0.0013011828       -0.0000164503
  O         0.0001527363       -0.0000234991        0.0000403936
  H         0.0008296864       -0.0004066141        0.0003476233
  H        -0.0004557187        0.0008442202        0.0001122125
  O         0.0000128552       -0.0000863122       -0.0000140719
  H         0.0006766581        0.0002990634        0.0001605852
  H        -0.0002529004        0.0007086374        0.0006240245
  O        -0.0001517131       -0.0000714942       -0.0000522271
  H         0.0011492581        0.0000060263       -0.0001065376
  H        -0.0011902268        0.0005679613        0.0001357609
  O        -0.0001503105       -0.0000092674       -0.0000581013
  H         0.0012466248        0.0003137822        0.0003904545
  H        -0.0002742444        0.0003405268        0.0001549111
  O        -0.0000157613       -0.0000773872        0.0000072708
  H         0.0003803194       -0.0000539106        0.0001896181
  H        -0.0007567128        0.0007214854       -0.0000746732
  O        -0.0000623694        0.0000394595        0.0001087189
  H         0.0006919045        0.0002054773        0.0002884573
  H         0.0001960581        0.0011223124        0.0003554213
  O        -0.0000058129       -0.0001949319       -0.0000792849
  H         0.0013659356        0.0002837739       -0.0001700916
  H        -0.0007644331        0.0004218724        0.0001193977
  O        -0.0002320560       -0.0000137548       -0.0000442497
  H         0.0007471826        0.0005703884        0.0001767149
  H        -0.0004036990        0.0007280879        0.0000120849
  O        -0.0002009903       -0.0000974495        0.0000252187
  H         0.0008935059        0.0000727781       -0.0005040912
  H        -0.0005559923        0.0004259731       -0.0001490444
  O        -0.0001031180       -0.0001398454       -0.0000332008
  H         0.0008785610       -0.0001638874       -0.0000292098
  H        -0.0008687135        0.0002646300       -0.0000259743
  O        -0.0000795596       -0.0001469352       -0.0000991540
  H         0.0010322032        0.0001190294       -0.0005889004
  H        -0.0002305891        0.0011724664        0.0000184341
  O        -0.0002079951       -0.0001203098       -0.0000397904
  H         0.0010086138       -0.0001264690        0.0001127843
  H        -0.0002171792        0.0007563827        0.0000323662
  O         0.0000723958       -0.0001965021        0.0001310563
  H         0.0010111118        0.0006468190        0.0003024839
  H        -0.0003842477        0.0007639586        0.0000390681
  O        -0.0002131012       -0.0001225201       -0.0001760399
  H         0.0006267537       -0.0002669089       -0.0000393148
  H        -0.0000498128        0.0007089575       -0.0001434958
  O         0.0001381200       -0.0001419891        0.0001442857
  H         0.0009346986       -0.0000000534        0.0004190589
  H        -0.0003020920        0.0006076025       -0.0000887919
  O        -0.0000989935       -0.0000205874        0.0001133925
  H         0.0009612634       -0.0003021596        0.0000557266
  H        -0.0004334206        0.0008193725       -0.0000682350
  O         0.0000554661       -0.0001731519        0.0000853780
  H         0.0006098538        0.0002819816       -0.0003897553
  H        -0.0003852378        0.0004804569        0.0004099984
  O        -0.0001237756       -0.0000169633        0.0001369463
  H         0.0011840121        0.0002453646        0.0004677896
  H        -0.0002428232        0.0008488453        0.0000701112
  O         0.0000608457       -0.0000605122       -0.0002504368
  H         0.0010442054        0.0003097631        0.0007179694
  H        -0.0004362563        0.0004557641       -0.0001140494
  O         0.0000153214       -0.0002727268        0.0000746420
  H         0.0006593995        0.0004303646       -0.0002280995
  H        -0.0006590553        0.0005485934       -0.0001405637
  O        -0.0001321536       -0.0002707535       -0.0000311561
  H         0.0005341623       -0.0004513461        0.0005533125
  H        -0.0005441237        0.0006881054       -0.0004545223
  O        -0.0000196478       -0.0001323369       -0.0001235119
  H         0.0009485093        0.0006687928       -0.0001432236
  H        -0.0005280854        0.0010221883        0.0006005698
  O        -0.0002603182       -0.0000490353       -0.0001028095
  H         0.0008046888       -0.0004904197       -0.0000091695
  H        -0.0005191978        0.0010811002        0.0002862332
  O        -0.0001677909       -0.0001392836       -0.0000536783
  H         0.0007858812        0.0002051220        0.0003210989
  H        -0.0004106290        0.0012153716       -0.0000521833
  O         0.0000409012       -0.0001743834        0.0000633447
  H         0.0013140314        0.0003816219       -0.0003006699
  H        -0.0004615298        0.0008752183       -0.0000431318
  O        -0.0001207858       -0.0000951157       -0.0001071988
  H         0.0009640880        0.0000699747        0.0000360452
  H        -0.0004814372        0.0007549990       -0.0005812295
  O        -0.0000880080       -0.0000241071       -0.0000955030
  H         0.0005719374        0.0000750071        0.0003966981
  H        -0.0002952215        0.0008310708       -0.0000582277
      96
 i =        2, time =        2.000, E =      -372.5457002157
  O         0.0000560084       -0.0002782198       -0.0000192126
  H         0.0016727700        0.0000048587       -0.0001370257
  H        -0.0007226062        0.0011695092       -0.0002814079
  O         0.0001196537       -0.0003428424        0.0000814474
  H         0.0019922498       -0.0000510608        0.0001216682
  H        -0.0004528941        0.0011968130        0.0004065368
  O        -0.0001216011       -0.0002212636        0.0001021032
  H         0.0011504560       -0.0002748975       -0.0002219215
  H        -0.0008932494        0.0014728272       -0.0002833821
  O        -0.0001182482        0.0000128652       -0.0000669664
  H         0.0015177687        0.0005982909       -0.0001665994
  H        -0.0005603176        0.0014279942        0.0004172165
  O        -0.0001319358       -0.0001510272       -0.0001149222
  H         0.0014724197        0.0001244245        0.0003054145
  H        -0.0005937567        0.0019186597       -0.0000112125
  O         0.0000865186       -0.0001156035        0.0000384284
  H         0.0015515022       -0.0002725455        0.0003583215
  H        -0.0006457124        0.0014382944        0.0001169162
  O        -0.0000491223       -0.0001835949       -0.0000177567
  H         0.0014724860        0.0003805685        0.0001690641
  H        -0.0005619843        0.0014040860        0.0006448726
  O        -0.0002038957       -0.0001758328       -0.0000529688
  H         0.0017326610        0.0002019952       -0.0001059401
  H        -0.0013529050        0.0011974910        0.0001408522
  O        -0.0001834728       -0.0001247543       -0.0000611252
  H         0.0018497732        0.0004165042        0.0004030138
  H        -0.0006197376        0.0011585367        0.0001659057
  O        -0.0000887702       -0.0001655867        0.0000067069
  H         0.0011966899        0.0000571573        0.0001955645
  H        -0.0009875296        0.0013071288       -0.0000757029
  O        -0.0001243033       -0.0000594353        0.0001067544
  H         0.0014969715        0.0002671662        0.0002953103
  H        -0.0001233083        0.0018495810        0.0003640131
  O        -0.0000527096       -0.0003034246       -0.0000798779
  H         0.0019759978        0.0004533951       -0.0001710507
  H        -0.0009958283        0.0011105285        0.0001256042
  O        -0.0002840619       -0.0001185461       -0.0000455460
  H         0.0014813871        0.0006614522        0.0001841430
  H        -0.0007311955        0.0014731911        0.0000148486
  O        -0.0002468112       -0.0002036398        0.0000283890
  H         0.0015557871        0.0001917728       -0.0005204058
  H        -0.0008477954        0.0011468926       -0.0001586569
  O        -0.0001533505       -0.0002407131       -0.0000333916
  H         0.0015091238       -0.0000306665       -0.0000284174
  H        -0.0011061327        0.0009362352       -0.0000252605
  O        -0.0001421898       -0.0002483481       -0.0000973419
  H         0.0017593136        0.0002586207       -0.0006037763
  H        -0.0004539980        0.0018347592        0.0000189513
  O        -0.0002576972       -0.0002269614       -0.0000408739
  H         0.0016657493       -0.0000132084        0.0001177698
  H        -0.0004854361        0.0014935030        0.0000360498
  O         0.0000122864       -0.0002981113        0.0001306067
  H         0.0017789129        0.0007714799        0.0003079424
  H        -0.0006683360        0.0014433564        0.0000369417
  O        -0.0002676859       -0.0002234669       -0.0001767918
  H         0.0013642284       -0.0001975056       -0.0000348097
  H        -0.0003598729        0.0014448093       -0.0001418373
  O         0.0000790903       -0.0002403196        0.0001441073
  H         0.0016730438        0.0001153842        0.0004263379
  H        -0.0005655735        0.0012694911       -0.0000945998
  O        -0.0001542772       -0.0001217716        0.0001144410
  H         0.0016097852       -0.0001700945        0.0000527909
  H        -0.0006483783        0.0014944724       -0.0000739960
  O        -0.0000066507       -0.0002691394        0.0000860886
  H         0.0014267819        0.0003686197       -0.0004048348
  H        -0.0007029524        0.0011524192        0.0004190139
  O        -0.0001721338       -0.0001253813        0.0001358604
  H         0.0018336020        0.0003681006        0.0004766331
  H        -0.0005143536        0.0015910100        0.0000698136
  O         0.0000119927       -0.0001647062       -0.0002553660
  H         0.0017340956        0.0004281017        0.0007475242
  H        -0.0007320420        0.0011613325       -0.0001033237
  O        -0.0000513282       -0.0003686130        0.0000770600
  H         0.0014586663        0.0005415811       -0.0002402007
  H        -0.0009352552        0.0012032891       -0.0001482441
  O        -0.0001988418       -0.0003640299       -0.0000322159
  H         0.0012912831       -0.0003319327        0.0005703588
  H        -0.0007651235        0.0013058398       -0.0004627243
  O        -0.0000849338       -0.0002321885       -0.0001265065
  H         0.0017062105        0.0008027635       -0.0001396827
  H        -0.0007734133        0.0016851465        0.0006216542
  O        -0.0003212623       -0.0001481664       -0.0001050962
  H         0.0014729409       -0.0003396239       -0.0000031223
  H        -0.0006972259        0.0017140183        0.0002983537
  O        -0.0002358339       -0.0002372231       -0.0000555801
  H         0.0015415560        0.0003328334        0.0003339830
  H        -0.0006324616        0.0018691647       -0.0000498075
  O        -0.0000150710       -0.0002794572        0.0000655075
  H         0.0019901320        0.0005412120       -0.0003121393
  H        -0.0006868850        0.0015469418       -0.0000488720
  O        -0.0001758721       -0.0001979648       -0.0001055525
  H         0.0016399264        0.0001975479        0.0000372059
  H        -0.0007258126        0.0014479066       -0.0005955676
  O        -0.0001502888       -0.0001203791       -0.0000980384
  H         0.0013607855        0.0001654639        0.0004133878
  H        -0.0005828200        0.0015016359       -0.0000547503
      96
 i =        3, time =        3.000, E =      -372.8475927929
  O        -0.0000074734       -0.0003861239       -0.0000162239
  H         0.0022085455        0.0002700988       -0.0001471109
  H        -0.0007597708        0.0017645436       -0.0002948974
  O         0.0000658781       -0.0004574642        0.0000783590
  H         0.0024740625        0.0002249385        0.0001299868
  H        -0.0005019731        0.0018287430        0.0004223122
  O        -0.0002094654       -0.0003139804        0.0001076433
  H         0.0018181061       -0.0000168504       -0.0002472387
  H        -0.0008687504        0.0019547014       -0.0003029134
  O        -0.0001711198       -0.0000984483       -0.0000702157
  H         0.0021173958        0.0008008452       -0.0001642917
  H        -0.0007339380        0.0021061366        0.0004405877
  O        -0.0002130934       -0.0002494222       -0.0001191942
  H         0.0021094390        0.0003827359        0.0003288452
  H        -0.0005918466        0.0024453553        0.0000000776
  O         0.0000127359       -0.0002171525        0.0000349294
  H         0.0021205361        0.0000109925        0.0003751509
  H        -0.0006238286        0.0019583636        0.0001274489
  O        -0.0001156585       -0.0002876365       -0.0000240315
  H         0.0021222967        0.0005880838        0.0001874802
  H        -0.0006877091        0.0020271133        0.0006764650
  O        -0.0002600162       -0.0002927098       -0.0000543224
  H         0.0021408792        0.0005514730       -0.0001025469
  H        -0.0013099043        0.0017738430        0.0001480021
  O        -0.0002159979       -0.0002503736       -0.0000662198
  H         0.0022682917        0.0006425293        0.0004219628
  H        -0.0007845547        0.0019331519        0.0001868259
  O        -0.0001690283       -0.0002620980        0.0000056472
  H         0.0018663779        0.0003142287        0.0002038104
  H        -0.0010152736        0.0018130305       -0.0000750624
  O        -0.0001910407       -0.0001632734        0.0001034621
  H         0.0021599126        0.0004424946        0.0003074241
  H        -0.0002616222        0.0025020196        0.0003777963
  O        -0.0001004472       -0.0004224135       -0.0000809577
  H         0.0024033598        0.0007598800       -0.0001700299
  H        -0.0010386922        0.0017463005        0.0001339756
  O        -0.0003378208       -0.0002303101       -0.0000476756
  H         0.0020549844        0.0008714867        0.0001950957
  H        -0.0008835275        0.0021543045        0.0000207387
  O        -0.0002946839       -0.0003200740        0.0000339008
  H         0.0020463911        0.0004445380       -0.0005453286
  H        -0.0009522338        0.0018159159       -0.0001787496
  O        -0.0002079186       -0.0003528140       -0.0000336693
  H         0.0019702614        0.0002500546       -0.0000271572
  H        -0.0011387075        0.0015490669       -0.0000243164
  O        -0.0002082326       -0.0003545343       -0.0000943788
  H         0.0023266760        0.0005190636       -0.0006235583
  H        -0.0004913643        0.0024144782        0.0000152034
  O        -0.0003105128       -0.0003418240       -0.0000427056
  H         0.0021582741        0.0002248933        0.0001255560
  H        -0.0005633961        0.0021702861        0.0000430091
  O        -0.0000495230       -0.0004056548        0.0001298816
  H         0.0023859134        0.0010178103        0.0003149756
  H        -0.0007789412        0.0020490962        0.0000352825
  O        -0.0003270732       -0.0003316322       -0.0001780614
  H         0.0019499996       -0.0000056057       -0.0000280745
  H        -0.0004792969        0.0021148857       -0.0001381971
  O         0.0000154238       -0.0003474694        0.0001437938
  H         0.0022548636        0.0003672385        0.0004344591
  H        -0.0006367446        0.0018652320       -0.0001001959
  O        -0.0002151008       -0.0002326282        0.0001163000
  H         0.0020989153        0.0001016624        0.0000464988
  H        -0.0006588418        0.0021061573       -0.0000831496
  O        -0.0000725882       -0.0003730087        0.0000873293
  H         0.0020908540        0.0005872295       -0.0004239336
  H        -0.0008384711        0.0017553001        0.0004275836
  O        -0.0002220549       -0.0002414815        0.0001340520
  H         0.0023117239        0.0006123962        0.0004882830
  H        -0.0006011025        0.0022721150        0.0000725352
  O        -0.0000384170       -0.0002787827       -0.0002638263
  H         0.0022521238        0.0006799694        0.0007908281
  H        -0.0008444350        0.0018123755       -0.0000775253
  O        -0.0001222165       -0.0004715369        0.0000811813
  H         0.0021090908        0.0007852882       -0.0002600734
  H        -0.0010282031        0.0017813785       -0.0001620324
  O        -0.0002723101       -0.0004656388       -0.0000340988
  H         0.0018984298       -0.0000709624        0.0005910539
  H        -0.0007829751        0.0018483967       -0.0004678700
  O        -0.0001532146       -0.0003362250       -0.0001313355
  H         0.0023070831        0.0010575023       -0.0001284316
  H        -0.0008374366        0.0022602896        0.0006502537
  O        -0.0003886980       -0.0002560335       -0.0001090838
  H         0.0019852747       -0.0000480751        0.0000100362
  H        -0.0006685453        0.0022758933        0.0003169614
  O        -0.0003087481       -0.0003393538       -0.0000587329
  H         0.0021481371        0.0005822150        0.0003525959
  H        -0.0006659308        0.0024340926       -0.0000431109
  O        -0.0000724124       -0.0003910492        0.0000690276
  H         0.0024932093        0.0008252993       -0.0003287467
  H        -0.0007291990        0.0021466497       -0.0000603313
  O        -0.0002349920       -0.0003092886       -0.0001027234
  H         0.0021553939        0.0004571643        0.0000339276
  H        -0.0007768749        0.0020755092       -0.0006149839
  O        -0.0002175017       -0.0002242062       -0.0001023879
  H         0.0019998016        0.0003859207        0.0004380897
  H        -0.0006820257        0.0021025014       -0.0000449654
      96
 i =        4, time =        4.000, E =      -373.1602348138
  O        -0.0000722574       -0.0004964255       -0.0000121867
  H         0.0025813915        0.0006409068       -0.0001626404
  H        -0.0006224505        0.0022720080       -0.0003116771
  O         0.0000138664       -0.0005707320        0.0000743829
  H         0.0027732265        0.0005923503        0.0001431784
  H        -0.0003838586        0.0023594023        0.0004404691
  O        -0.0003004525       -0.0004108257        0.0001153063
  H         0.0023321422        0.0003613160       -0.0002833403
  H        -0.0006646100        0.0023484623       -0.0003293418
  O        -0.0002229097       -0.0002091851       -0.0000744196
  H         0.0025273571        0.0011040655       -0.0001557530
  H        -0.0007276686        0.0026795945        0.0004654570
  O        -0.0002917478       -0.0003407329       -0.0001245063
  H         0.0025603073        0.0007241831        0.0003555918
  H        -0.0004222559        0.0028318455        0.0000168647
  O        -0.0000643483       -0.0003241423        0.0000300629
  H         0.0025399776        0.0004138756        0.0003961623
  H        -0.0004278419        0.0024031068        0.0001444045
  O        -0.0001809250       -0.0003895952       -0.0000320527
  H         0.0025858375        0.0008927911        0.0002158402
  H        -0.0006354570        0.0025359174        0.0007122946
  O        -0.0003143905       -0.0004105883       -0.0000559924
  H         0.0023738445        0.0009935807       -0.0000963117
  H        -0.0011070224        0.0022667286        0.0001549894
  O        -0.0002461368       -0.0003729843       -0.0000726471
  H         0.0024900949        0.0009536655        0.0004435105
  H        -0.0007697975        0.0025977340        0.0002159142
  O        -0.0002511779       -0.0003647621        0.0000041682
  H         0.0023719347        0.0006960529        0.0002124889
  H        -0.0008657251        0.0022438144       -0.0000718079
  O        -0.0002555036       -0.0002607463        0.0000993879
  H         0.0026284881        0.0007048928        0.0003233167
  H        -0.0002221825        0.0030160325        0.0003940061
  O        -0.0001430209       -0.0005376417       -0.0000822914
  H         0.0026283084        0.0011429832       -0.0001661756
  H        -0.0009216387        0.0022767680        0.0001417178
  O        -0.0003877950       -0.0003365798       -0.0000502572
  H         0.0024261335        0.0011627562        0.0002070253
  H        -0.0008621488        0.0027095793        0.0000294598
  O        -0.0003414526       -0.0004372345        0.0000410625
  H         0.0023549694        0.0007955747       -0.0005739913
  H        -0.0008846827        0.0023934477       -0.0002088483
  O        -0.0002653865       -0.0004713375       -0.0000340343
  H         0.0022791362        0.0006462218       -0.0000253985
  H        -0.0009943914        0.0020965355       -0.0000231987
  O        -0.0002673732       -0.0004489031       -0.0000909636
  H         0.0026784568        0.0008436697       -0.0006411497
  H        -0.0003695148        0.0028369048        0.0000055782
  O        -0.0003608535       -0.0004516610       -0.0000449422
  H         0.0024615150        0.0005451298        0.0001344781
  H        -0.0004700385        0.0027240086        0.0000522922
  O        -0.0001044293       -0.0005044172        0.0001289813
  H         0.0027734132        0.0013337564        0.0003212573
  H        -0.0007263826        0.0025168442        0.0000357096
  O        -0.0003876140       -0.0004387084       -0.0001796687
  H         0.0023630997        0.0002878105       -0.0000205153
  H        -0.0004153701        0.0026738239       -0.0001326507
  O        -0.0000481151       -0.0004559176        0.0001434073
  H         0.0026611179        0.0007234650        0.0004400807
  H        -0.0005351744        0.0023674145       -0.0001027389
  O        -0.0002769699       -0.0003439442        0.0001188138
  H         0.0024252590        0.0004726873        0.0000367517
  H        -0.0004965119        0.0026214002       -0.0000944322
  O        -0.0001374935       -0.0004788390        0.0000889608
  H         0.0025671538        0.0009157596       -0.0004409656
  H        -0.0007960894        0.0022643791        0.0004307305
  O        -0.0002671139       -0.0003500794        0.0001318970
  H         0.0025854984        0.0009281618        0.0004988023
  H        -0.0005204472        0.0028211598        0.0000794130
  O        -0.0000865210       -0.0003934221       -0.0002746797
  H         0.0025807738        0.0010286791        0.0008380322
  H        -0.0007872590        0.0023720860       -0.0000360707