#     Step Nr.          Time[fs]        Kin.[a.u.]          Temp[K]            Pot.[a.u.]        Cons Qty[a.u.]        UsedTime[s]
         0            0.000000         0.042419492        94.000000000      -372.181808024      -372.139388532         0.000000000
         1            1.000000         0.137108793       303.827935596      -372.315916941      -372.178808148        19.927099000
         2            2.000000         0.363858823       806.297486458      -372.547531763      -372.183672939         7.907257000
         3            3.000000         0.659858580      1462.221830696      -372.851033247      -372.191174667         7.010087000
         4            4.000000         0.960384687      2128.176396642      -373.164228687      -372.203844000         6.361813000
         5            5.000000         1.157002595      2563.874295079      -373.378920543      -372.221917948         5.722668000
         6            6.000000         1.147643302      2543.134452945      -373.378851995      -372.231208693         5.698652000
         7            7.000000         0.934166174      2070.077154659      -373.166335279      -372.232169105         5.461435000
         8            8.000000         0.629755540      1395.514624596      -372.855552057      -372.225796517         5.488506000
         9            9.000000         0.384013380       850.959226772      -372.602226377      -372.218212997         5.730022000
        10           10.000000         0.308228722       683.023270367      -372.524700661      -372.216471940         5.752607000
        11           11.000000         0.437287000       969.011568670      -372.656249175      -372.218962175         5.694176000
        12           12.000000         0.715154007      1584.754420094      -372.943868480      -372.228714472         5.482280000
        13           13.000000         0.995842677      2206.749970268      -373.238440410      -372.242597733         5.464183000
        14           14.000000         1.086371915      2407.359360958      -373.330297035      -372.243925121         5.472611000
        15           15.000000         0.871493060      1931.195887966      -373.100563041      -372.229069981         5.445838000
        16           16.000000         0.473962436      1050.282957085      -372.677854871      -372.203892435         5.233377000
        17           17.000000         0.238600674       528.730133089      -372.423857568      -372.185256893         5.219725000
        18           18.000000         0.408178841       904.508981952      -372.602856980      -372.194678138         5.191036000
        19           19.000000         0.849014476      1881.384191429      -373.066377920      -372.217363443         5.270155000
        20           20.000000         1.227363485      2719.791384974      -373.456568477      -372.229204991         5.480783000
        21           21.000000         1.332383806      2952.512472124      -373.560788563      -372.228404757         5.494582000
        22           22.000000         1.155170044      2559.813431165      -373.378165205      -372.222995161         5.503831000
        23           23.000000         0.806401260      1786.954905559      -373.021120027      -372.214718767         5.725725000
        24           24.000000         0.430194800       953.295519570      -372.638603556      -372.208408756         5.709613000
        25           25.000000         0.150291877       333.041154135      -372.354901810      -372.204609933         5.715625000
        26           26.000000         0.044137391        97.806800409      -372.247489462      -372.203352071         5.664862000
        27           27.000000         0.135432780       300.113954381      -372.339365996      -372.203933216         5.664555000
        28           28.000000         0.394953775       875.202730912      -372.602169942      -372.207216167         5.479812000
        29           29.000000         0.745034002      1650.967365510      -372.956376522      -372.211342520         5.447900000
        30           30.000000         1.071524035      2374.457016842      -373.288447601      -372.216923566         5.470194000
        31           31.000000         1.248971523      2767.673984660      -373.470493418      -372.221521896         5.449869000
        32           32.000000         1.182141289      2619.580697202      -373.405898112      -372.223756823         5.483799000
        33           33.000000         0.872016464      1932.355731792      -373.086301727      -372.214285263         5.297619000
        34           34.000000         0.491367692      1088.852350461      -372.686274003      -372.194906311         5.221763000
        35           35.000000         0.334035481       740.210080513      -372.519365249      -372.185329768         5.206828000
        36           36.000000         0.538104511      1192.419385949      -372.739175637      -372.201071126         5.231032000
        37           37.000000         0.902637805      2000.211473420      -373.128607610      -372.225969806         5.470362000
        38           38.000000         1.103169978      2444.583238667      -373.337499457      -372.234329478         5.515134000
        39           39.000000         1.002788867      2222.142466974      -373.230756546      -372.227967679         5.475855000
        40           40.000000         0.702622613      1556.985320675      -372.920275441      -372.217652828         5.470098000
        41           41.000000         0.397738835       881.374320873      -372.606571183      -372.208832348         5.737896000
        42           42.000000         0.244244987       541.237718284      -372.448170155      -372.203925167         6.188871000
        43           43.000000         0.308871175       684.446922730      -372.513748848      -372.204877673         6.159180000
        44           44.000000         0.566409123      1255.141343808      -372.775353276      -372.208944153         5.703340000
        45           45.000000         0.910901807      2018.524192149      -373.127424934      -372.216523127         5.503631000
        46           46.000000         1.185680501      2627.423456788      -373.408555302      -372.222874802         5.681819000
        47           47.000000         1.253012929      2776.629590247      -373.475292805      -372.222279876         5.702331000
        48           48.000000         1.081347089      2396.224534280      -373.292617857      -372.211270768         5.482792000
        49           49.000000         0.766002585      1697.432957762      -372.964986366      -372.198983782         5.519761000
        50           50.000000         0.443930916       983.734236093      -372.635734357      -372.191803441         6.321303000
        51           51.000000         0.207364219       459.511320190      -372.396554779      -372.189190560         6.622501000
        52           52.000000         0.104279924       231.080395730      -372.293454337      -372.189174412         6.077675000
        53           53.000000         0.144901906       321.097180736      -372.337061739      -372.192159833         5.913884000
        54           54.000000         0.289089731       640.611986087      -372.482496542      -372.193406811         6.180040000
        55           55.000000         0.492098339      1090.471436741      -372.685351623      -372.193253284         6.197464000
        56           56.000000         0.733322257      1625.014577955      -372.929387428      -372.196065171         5.694488000
        57           57.000000         0.963045129      2134.071835638      -373.169026990      -372.205981861         5.702987000
        58           58.000000         1.088148613      2411.296457280      -373.302571489      -372.214422876         5.754751000
        59           59.000000         1.046223525      2318.392035758      -373.260582478      -372.214358954         5.518888000
        60           60.000000         0.865152828      1917.146172509      -373.075038590      -372.209885763         5.471007000
        61           61.000000         0.644234946      1427.600443440      -372.848226482      -372.203991536         5.726994000
        62           62.000000         0.493076518      1092.639044187      -372.694000348      -372.200923831         6.233438000
        63           63.000000         0.480812596      1065.462654465      -372.682257779      -372.201445183         5.707732000
        64           64.000000         0.610694275      1353.275577041      -372.815396232      -372.204701957         5.715359000
        65           65.000000         0.811220201      1797.633497603      -373.025743845      -372.214523643         5.462537000
        66           66.000000         0.947597360      2099.840159531      -373.171216530      -372.223619170         5.454744000
        67           67.000000         0.884480339      1959.975210489      -373.111144677      -372.226664338         5.689945000
        68           68.000000         0.613255899      1358.952038414      -372.825112580      -372.211856681         5.513331000
        69           69.000000         0.340067022       753.575749161      -372.530725414      -372.190658392         4.983950000
        70           70.000000         0.343270958       760.675549982      -372.529674828      -372.186403870         4.994060000
        71           71.000000         0.671672917      1488.401956393      -372.874927274      -372.203254358         5.018137000
        72           72.000000         1.089782724      2414.917585286      -373.309498621      -372.219715897         5.011463000
        73           73.000000         1.332963466      2953.796975566      -373.556347007      -372.223383541         5.002627000
        74           74.000000         1.300332991      2881.489069696      -373.519290556      -372.218957565         5.221524000
        75           75.000000         1.045163354      2316.042738240      -373.255832912      -372.210669558         5.494112000
        76           76.000000         0.690203967      1529.466068787      -372.893377452      -372.203173485         5.455723000
        77           77.000000         0.359889540       797.501704193      -372.557833025      -372.197943485         5.685912000
        78           78.000000         0.145141385       321.627858291      -372.340122843      -372.194981457         6.157480000
        79           79.000000         0.092418246       204.795362653      -372.287702737      -372.195284491         5.972765000
        80           80.000000         0.205150222       454.605187015      -372.402420364      -372.197270141         6.165674000
        81           81.000000         0.448974814       994.911324466      -372.650163497      -372.201188683         5.484340000
        82           82.000000         0.757403768      1678.378303274      -372.963128406      -372.205724638         5.266284000
        83           83.000000         1.039481673      2303.452346271      -373.250719920      -372.211238247         5.482400000
        84           84.000000         1.194845569      2647.732904334      -373.410460284      -372.215614715         5.421537000
        85           85.000000         1.147075528      2541.876287909      -373.365564365      -372.218488837         5.447193000
        86           86.000000         0.905777514      2007.168950221      -373.115475520      -372.209698006         5.480576000
        87           87.000000         0.620190894      1374.319726777      -372.815711378      -372.195520485         4.997610000
        88           88.000000         0.508226439      1126.210700423      -372.699019066      -372.190792627         4.988555000
        89           89.000000         0.645279689      1429.915554501      -372.848857738      -372.203578049         5.455464000
        90           90.000000         0.867341791      1921.996832719      -373.086889945      -372.219548154         5.469083000
        91           91.000000         0.947819599      2100.332633624      -373.172960772      -372.225141172         5.464826000
        92           92.000000         0.812665275      1800.835726678      -373.031144345      -372.218479070         5.717256000
        93           93.000000         0.561415183      1244.074960210      -372.770722250      -372.209307067         5.650796000
        94           94.000000         0.352347378       780.788556169      -372.554775992      -372.202428614         6.157875000
        95           95.000000         0.300961508       666.919397952      -372.501849449      -372.200887941         6.369461000
        96           96.000000         0.440481431       976.090307242      -372.643533973      -372.203052542         6.358166000
        97           97.000000         0.720583831      1596.786705115      -372.930068580      -372.209484749         5.904864000
        98           98.000000         1.025799295      2273.132709324      -373.244229305      -372.218430010         5.640199000
        99           99.000000         1.218548510      2700.257731693      -373.440020339      -372.221471829         5.571836000
       100          100.000000         1.207750982      2676.330814305      -373.426489947      -372.218738965         5.548245000
       101          101.000000         1.005687265      2228.565207582      -373.215031451      -372.209344186         5.579702000
       102          102.000000         0.715092652      1584.618460006      -372.914938713      -372.199846061         5.793145000
       103          103.000000         0.446467365       989.354911972      -372.641063723      -372.194596358         6.015435000
       104          104.000000         0.253798377       562.407671807      -372.448163003      -372.194364626         6.084909000
       105          105.000000         0.149992756       332.378314568      -372.346018832      -372.196026075         6.261387000
       106          106.000000         0.145076640       321.484384468      -372.338948874      -372.193872234         6.182052000
       107          107.000000         0.238081369       527.579372501      -372.433180340      -372.195098971         6.088558000
       108          108.000000         0.410695018       910.084735001      -372.606885393      -372.196190375         6.042516000
       109          109.000000         0.641349517      1421.206442299      -372.839596524      -372.198247007         6.522783000
       110          110.000000         0.881835424      1954.114178343      -373.087821719      -372.205986295         6.453997000
       111          111.000000         1.049802182      2326.322205691      -373.263589331      -372.213787149         6.285954000
       112          112.000000         1.081516329      2396.599564994      -373.297520183      -372.216003854         5.568923000
       113          113.000000         0.978830529      2169.051689763      -373.192502516      -372.213671986         5.564795000
       114          114.000000         0.803047662      1779.523458596      -373.011482300      -372.208434638         5.570671000
       115          115.000000         0.636946902      1411.450410965      -372.840797919      -372.203851018         5.539596000
       116          116.000000         0.548002161      1214.352206720      -372.751103708      -372.203101547         6.103233000
       117          117.000000         0.562774557      1247.087280968      -372.766075574      -372.203301017         5.813874000
       118          118.000000         0.651845455      1444.465046699      -372.861008804      -372.209163348         5.544626000
       119          119.000000         0.733828308      1626.135968472      -372.948996508      -372.215168201         5.570285000
       120          120.000000         0.718932257      1593.126878901      -372.935565438      -372.216633181         5.583097000
       121          121.000000         0.592875764      1313.790426490      -372.801534147      -372.208658382         5.549529000
       122          122.000000         0.468677993      1038.572830223      -372.664947650      -372.196269657         5.099277000
       123          123.000000         0.502644158      1113.840574518      -372.696715164      -372.194071007         5.111952000
       124          124.000000         0.727737877      1612.639802928      -372.931719862      -372.203981985         5.128145000
       125          125.000000         1.014682398      2248.498084249      -373.227642168      -372.212959770         5.277418000
       126          126.000000         1.199027922      2657.000842420      -373.415060338      -372.216032416         5.797152000
       127          127.000000         1.196420946      2651.223881145      -373.410936073      -372.214515127         5.632643000
       128          128.000000         1.018417652      2256.775267525      -373.229251453      -372.210833800         5.666986000
       129          129.000000         0.737832051      1635.008112859      -372.942700556      -372.204868505         5.637362000
       130          130.000000         0.448979026       994.920657562      -372.648832404      -372.199853379         5.640149000
       131          131.000000         0.235594690       522.068984499      -372.431438144      -372.195843454         5.692338000
       132          132.000000         0.151507377       335.734656374      -372.347338747      -372.195831370         5.624352000
       133          133.000000         0.214139754       474.525653115      -372.410075709      -372.195935955         5.566532000
       134          134.000000         0.405343437       898.225832856      -372.604818670      -372.199475233         5.555635000
       135          135.000000         0.674318246      1494.263907322      -372.877304390      -372.202986143         5.580396000
       136          136.000000         0.942776013      2089.156234583      -373.152483624      -372.209707611         5.548676000
       137          137.000000         1.119042361      2479.755841480      -373.333223588      -372.214181227         5.568757000
       138          138.000000         1.131093226      2506.460106560      -373.347127310      -372.216034084         5.545566000
       139          139.000000         0.976936955      2164.855599605      -373.187353857      -372.210416902         5.657175000
       140          140.000000         0.756422257      1676.203311349      -372.957669402      -372.201247145         5.595923000
       141          141.000000         0.618129066      1369.750793318      -372.815018478      -372.196889412         5.555479000
       142          142.000000         0.628839438      1393.484575524      -372.831093218      -372.202253780         5.055056000
       143          143.000000         0.711955131      1577.665829520      -372.923999174      -372.212044044         5.592193000
       144          144.000000         0.742572926      1645.513713741      -372.957480364      -372.214907438         5.552405000
       145          145.000000         0.672002520      1489.132343863      -372.883315681      -372.211313162         5.241401000
       146          146.000000         0.545890105      1209.671970028      -372.751393695      -372.205503590         5.484847000
       147          147.000000         0.448499314       993.857635055      -372.650024914      -372.201525600         5.704262000
       148          148.000000         0.448950781       994.858069301      -372.648406660      -372.199455879         5.952895000
       149          149.000000         0.570068396      1263.250155576      -372.771111218      -372.201042822         5.951656000
       150          150.000000         0.777809081      1723.595710706      -372.983102824      -372.205293743         5.473373000
       151          151.000000         0.991847058      2197.895827864      -373.203082140      -372.211235082         5.503524000
       152          152.000000         1.118637319      2478.858284637      -373.333447366      -372.214810047         5.484593000
       153          153.000000         1.098949898      2435.231697986      -373.312559722      -372.213609825         5.444579000
       154          154.000000         0.941891563      2087.196328521      -373.150613702      -372.208722139         5.488997000
       155          155.000000         0.712918262      1579.800092989      -372.916850612      -372.203932349         5.958823000
       156          156.000000         0.484636828      1073.937008929      -372.685579426      -372.200942598         5.974096000
       157          157.000000         0.304289092       674.293199512      -372.501818015      -372.197528923         6.030101000
       158          158.000000         0.200639659       444.609949251      -372.397003518      -372.196363859         6.001972000
       159          159.000000         0.193800458       429.454535118      -372.389952596      -372.196152139         6.048610000
       160          160.000000         0.287786208       637.723428364      -372.485399984      -372.197613776         6.028522000
       161          161.000000         0.460074795      1019.508465983      -372.661661945      -372.201587150         5.915941000
       162          162.000000         0.663951880      1471.292428122      -372.870124014      -372.206172135         5.912400000
       163          163.000000         0.840505473      1862.528559757      -373.049620256      -372.209114783         6.431748000
       164          164.000000         0.941164101      2085.584299505      -373.152367067      -372.211202965         6.430776000
       165          165.000000         0.947319755      2099.224996431      -373.158631293      -372.211311538         6.404755000
       166          166.000000         0.873762037      1936.223857242      -373.084141920      -372.210379883         6.389109000
       167          167.000000         0.760724850      1685.737695802      -372.968801764      -372.208076914         6.290964000
       168          168.000000         0.657519665      1457.038881680      -372.862872052      -372.205352387         5.939593000
       169          169.000000         0.601297940      1332.453650096      -372.807314142      -372.206016203         5.943395000
       170          170.000000         0.602512188      1335.144380166      -372.810529210      -372.208017021         5.939791000
       171          171.000000         0.640378091      1419.053798366      -372.850870456      -372.210492364         5.448223000
       172          172.000000         0.672744464      1490.776463967      -372.885929990      -372.213185526         5.463473000
       173          173.000000         0.666285482      1476.463603436      -372.880615707      -372.214330225         5.450366000
       174          174.000000         0.629796325      1395.605001697      -372.840674625      -372.210878300         5.501631000
       175          175.000000         0.613347896      1359.155900720      -372.819711669      -372.206363773         5.472360000
       176          176.000000         0.665687533      1475.138570629      -372.872080623      -372.206393090         5.470333000
       177          177.000000         0.789156246      1748.740600482      -372.999065810      -372.209909564         5.479621000
       178          178.000000         0.928874540      2058.351094471      -373.143751347      -372.214876807         5.477706000
       179          179.000000         1.007338889      2232.225143684      -373.223385342      -372.216046453         5.459638000
       180          180.000000         0.981963287      2175.993763870      -373.196488828      -372.214525541         5.474578000
       181          181.000000         0.866042189      1919.116962894      -373.076891342      -372.210849153         5.474764000
       182          182.000000         0.702142673      1555.921792087      -372.910212592      -372.208069919         5.450805000
       183          183.000000         0.536115938      1188.012783178      -372.740994367      -372.204878429         5.464221000
       184          184.000000         0.409715415       907.913970614      -372.612099807      -372.202384392         5.459197000
       185          185.000000         0.356190017       789.303699061      -372.557011881      -372.200821864         5.516772000
       186          186.000000         0.392256970       869.226713289      -372.592743423      -372.200486453         5.460710000
       187          187.000000         0.511009304      1132.377424926      -372.713804178      -372.202794874         5.503998000
       188          188.000000         0.679708278      1506.208016038      -372.886460360      -372.206752081         5.432847000
       189          189.000000         0.844768527      1871.975327000      -373.056729188      -372.211960661         5.566352000
       190          190.000000         0.947868991      2100.442084205      -373.163940747      -372.216071756         5.535510000
       191          191.000000         0.953388647      2112.673432871      -373.168799703      -372.215411057         5.471425000
       192          192.000000         0.873406531      1935.436069887      -373.084665520      -372.211258988         5.446935000
       193          193.000000         0.763404133      1691.674886228      -372.969962444      -372.206558311         5.455396000
       194          194.000000         0.685013560      1517.964320898      -372.890970512      -372.205956952         5.472335000
       195          195.000000         0.666697124      1477.375786712      -372.874284749      -372.207587625         5.420600000
       196          196.000000         0.688668540      1526.063618963      -372.899366386      -372.210697846         5.454220000
       197          197.000000         0.703078083      1557.994626287      -372.916289627      -372.213211543         5.480690000
       198          198.000000         0.678797710      1504.190230430      -372.889766766      -372.210969056         5.447189000
       199          199.000000         0.629263080      1394.423350278      -372.838050849      -372.208787770         5.463688000
       200          200.000000         0.594537014      1317.471693031      -372.800829312      -372.206292298         5.457052000
       201          201.000000         0.604526195      1339.607342501      -372.810663597      -372.206137402         5.484225000
       202          202.000000         0.663476765      1470.239591276      -372.871090003      -372.207613239         5.470527000
       203          203.000000         0.754388301      1671.696142158      -372.964227852      -372.209839550         5.477724000
       204          204.000000         0.846184353      1875.112744195      -373.057927084      -372.211742732         5.465047000
       205          205.000000         0.903310800      2001.702806798      -373.116286553      -372.212975752         5.461827000
       206          206.000000         0.899842789      1994.017822792      -373.113699228      -372.213856440         5.667683000
       207          207.000000         0.830527927      1840.418692744      -373.042281157      -372.211753230         6.173953000
       208          208.000000         0.712001993      1577.769674096      -372.920814958      -372.208812965         6.391052000
       209          209.000000         0.576786791      1278.137865634      -372.783072491      -372.206285700         6.656949000
       210          210.000000         0.463030159      1026.057440884      -372.668222625      -372.205192466         6.442867000
       211          211.000000         0.400376970       887.220328988      -372.603988963      -372.203611993         6.653156000
       212          212.000000         0.406992264       901.879571612      -372.606730813      -372.199738549         6.187160000
       213          213.000000         0.486775595      1078.676436665      -372.688036577      -372.201260981         5.920078000
       214          214.000000         0.609694095      1351.059214797      -372.813809165      -372.204115070         5.897143000
       215          215.000000         0.724672484      1605.847007507      -372.931296709      -372.206624224         6.444196000
       216          216.000000         0.789080699      1748.573192986      -372.998673593      -372.209592894         6.400738000
       217          217.000000         0.789488472      1749.476802576      -372.997832536      -372.208344063         6.672085000
       218          218.000000         0.749187415      1660.171173841      -372.955460736      -372.206273320         6.420519000
       219          219.000000         0.698311878      1547.432893144      -372.902491984      -372.204180107         6.667864000
       220          220.000000         0.661008249      1464.769452943      -372.864878072      -372.203869823         6.404605000
       221          221.000000         0.651925726      1444.642923120      -372.855735662      -372.203809936         5.928412000
       222          222.000000         0.667968161      1480.192356757      -372.874018478      -372.206050317         5.897710000
       223          223.000000         0.693163296      1536.023830376      -372.900780061      -372.207616765         5.477657000
       224          224.000000         0.709802530      1572.895747957      -372.917164899      -372.207362369         5.476931000
       225          225.000000         0.710502959      1574.447872354      -372.917036448      -372.206533489         5.444841000
       226          226.000000         0.704464250      1561.066318518      -372.910182124      -372.205717874         5.461572000
       227          227.000000         0.710112605      1573.582862388      -372.916338262      -372.206225657         5.510377000