      96
 i =        0, time =        0.000, E =      -372.1140277005
  O         0.0000000000        2.6085000000        0.4597000000
  H         0.7570000000        2.6085000000        0.4597000000
  H        -0.3790000000        3.2645000000        0.4597000000
  O         2.2590000000        1.3042000000        2.2988000000
  H         3.0160000000        1.3042000000        2.2988000000
  H         1.8800000000        1.9602000000        2.2988000000
  O         0.0000000000        2.6085000000        4.1377000000
  H         0.7570000000        2.6085000000        4.1377000000
  H        -0.3790000000        3.2645000000        4.1377000000
  O         2.2590000000        1.3042000000        5.9768000000
  H         3.0160000000        1.3042000000        5.9768000000
  H         1.8800000000        1.9602000000        5.9768000000
  O         0.0000000000        2.6085000000        7.8157000000
  H         0.7570000000        2.6085000000        7.8157000000
  H        -0.3790000000        3.2645000000        7.8157000000
  O         2.2590000000        1.3042000000        9.6547000000
  H         3.0160000000        1.3042000000        9.6547000000
  H         1.8800000000        1.9602000000        9.6547000000
  O         0.0000000000        2.6085000000       11.4938000000
  H         0.7570000000        2.6085000000       11.4938000000
  H        -0.3790000000        3.2645000000       11.4938000000
  O         2.2590000000        1.3042000000       13.3327000000
  H         3.0160000000        1.3042000000       13.3327000000
  H         1.8800000000        1.9602000000       13.3327000000
  O        -2.2590000000        6.5212000000        0.4597000000
  H        -1.5020000000        6.5212000000        0.4597000000
  H        -2.6380000000        7.1772000000        0.4597000000
  O         0.0000000000        5.2169000000        2.2988000000
  H         0.7570000000        5.2169000000        2.2988000000
  H        -0.3790000000        5.8729000000        2.2988000000
  O        -2.2590000000        6.5212000000        4.1377000000
  H        -1.5020000000        6.5212000000        4.1377000000
  H        -2.6380000000        7.1772000000        4.1377000000
  O         0.0000000000        5.2169000000        5.9768000000
  H         0.7570000000        5.2169000000        5.9768000000
  H        -0.3790000000        5.8729000000        5.9768000000
  O        -2.2590000000        6.5212000000        7.8157000000
  H        -1.5020000000        6.5212000000        7.8157000000
  H        -2.6380000000        7.1772000000        7.8157000000
  O         0.0000000000        5.2169000000        9.6547000000
  H         0.7570000000        5.2169000000        9.6547000000
  H        -0.3790000000        5.8729000000        9.6547000000
  O        -2.2590000000        6.5212000000       11.4938000000
  H        -1.5020000000        6.5212000000       11.4938000000
  H        -2.6380000000        7.1772000000       11.4938000000
  O         0.0000000000        5.2169000000       13.3327000000
  H         0.7570000000        5.2169000000       13.3327000000
  H        -0.3790000000        5.8729000000       13.3327000000
  O         4.5180000000        2.6085000000        0.4597000000
  H         5.2750000000        2.6085000000        0.4597000000
  H         4.1390000000        3.2645000000        0.4597000000
  O         6.7770000000        1.3042000000        2.2988000000
  H         7.5340000000        1.3042000000        2.2988000000
  H         6.3980000000        1.9602000000        2.2988000000
  O         4.5180000000        2.6085000000        4.1377000000
  H         5.2750000000        2.6085000000        4.1377000000
  H         4.1390000000        3.2645000000        4.1377000000
  O         6.7770000000        1.3042000000        5.9768000000
  H         7.5340000000        1.3042000000        5.9768000000
  H         6.3980000000        1.9602000000        5.9768000000
  O         4.5180000000        2.6085000000        7.8157000000
  H         5.2750000000        2.6085000000        7.8157000000
  H         4.1390000000        3.2645000000        7.8157000000
  O         6.7770000000        1.3042000000        9.6547000000
  H         7.5340000000        1.3042000000        9.6547000000
  H         6.3980000000        1.9602000000        9.6547000000
  O         4.5180000000        2.6085000000       11.4938000000
  H         5.2750000000        2.6085000000       11.4938000000
  H         4.1390000000        3.2645000000       11.4938000000
  O         6.7770000000        1.3042000000       13.3327000000
  H         7.5340000000        1.3042000000       13.3327000000
  H         6.3980000000        1.9602000000       13.3327000000
  O         2.2590000000        6.5212000000        0.4597000000
  H         3.0160000000        6.5212000000        0.4597000000
  H         1.8800000000        7.1772000000        0.4597000000
  O         4.5180000000        5.2169000000        2.2988000000
  H         5.2750000000        5.2169000000        2.2988000000
  H         4.1390000000        5.8729000000        2.2988000000
  O         2.2590000000        6.5212000000        4.1377000000
  H         3.0160000000        6.5212000000        4.1377000000
  H         1.8800000000        7.1772000000        4.1377000000
  O         4.5180000000        5.2169000000        5.9768000000
  H         5.2750000000        5.2169000000        5.9768000000
  H         4.1390000000        5.8729000000        5.9768000000
  O         2.2590000000        6.5212000000        7.8157000000
  H         3.0160000000        6.5212000000        7.8157000000
  H         1.8800000000        7.1772000000        7.8157000000
  O         4.5180000000        5.2169000000        9.6547000000
  H         5.2750000000        5.2169000000        9.6547000000
  H         4.1390000000        5.8729000000        9.6547000000
  O         2.2590000000        6.5212000000       11.4938000000
  H         3.0160000000        6.5212000000       11.4938000000
  H         1.8800000000        7.1772000000       11.4938000000
  O         4.5180000000        5.2169000000       13.3327000000
  H         5.2750000000        5.2169000000       13.3327000000
  H         4.1390000000        5.8729000000       13.3327000000
      96
 i =        1, time =        1.000, E =      -372.3148682347
  O         0.0031091462        2.6055987757        0.4592305353
  H         0.7699510005        2.6052907025        0.4568376899
  H        -0.3859210422        3.2679755605        0.4537918319
  O         2.2632622982        1.3000778747        2.3006331843
  H         3.0372694112        1.2992646492        2.3013697722
  H         1.8791346221        1.9634738216        2.3073878355
  O        -0.0001474855        2.6064429370        4.1398451308
  H         0.7550192016        2.5995747314        4.1332310494
  H        -0.3911410576        3.2773978654        4.1318292542
  O         2.2580681701        1.3078287464        5.9753896131
  H         3.0234494347        1.3153321066        5.9732115581
  H         1.8801346635        1.9669310153        5.9854406183
  O        -0.0005171817        2.6082233791        7.8132583681
  H         0.7630140187        2.6077985633        7.8219374295
  H        -0.3843990973        3.2857256512        7.8153118103
  O         2.2630252701        1.3046582414        9.6555974743
  H         3.0253577130        1.2946351945        9.6622229710
  H         1.8733237158        1.9716540839        9.6571286128
  O         0.0009316664        2.6076416870       11.4935182324
  H         0.7623717975        2.6148064672       11.4972656206
  H        -0.3802025946        3.2720122817       11.5072915319
  O         2.2562313594        1.3037064605       13.3315624742
  H         3.0336896119        1.3031039199       13.3303733787
  H         1.8569717320        1.9653882926       13.3356275655
  O        -2.2619051469        6.5221895241        0.4584506413
  H        -1.4823845975        6.5276208573        0.4681426734
  H        -2.6393191561        7.1755836859        0.4630193130
  O         0.0004074207        5.2161493223        2.2989626952
  H         0.7556310839        5.2152460520        2.3029000542
  H        -0.3919071583        5.8817157793        2.2971821154
  O        -2.2597177634        6.5231121233        4.1400923431
  H        -1.4963490708        6.5256086544        4.1439640663
  H        -2.6292909414        7.1934689833        4.1454125390
  O         0.0003808001        5.2137520118        5.9750693664
  H         0.7791675806        5.2220784971        5.9730950862
  H        -0.3921135863        5.8743301487        5.9793609347
  O        -2.2635164026        6.5219978566        7.8147414027
  H        -1.4945104708        6.5333323871        7.8195076628
  H        -2.6423537842        7.1847043721        7.8159487535
  O        -0.0038967075        5.2158734923        9.6552293143
  H         0.7683105483        5.2179135697        9.6437988854
  H        -0.3869738416        5.8740580233        9.6514958104
  O        -2.2607174409        6.5191951888       11.4930751685
  H        -1.4907225679        6.5169496587       11.4931552127
  H        -2.6532711897        7.1752367121       11.4932260017
  O        -0.0010880867        5.2147480613       13.3305179618
  H         0.7708253442        5.2187100645       13.3199384499
  H        -0.3805415219        5.8909449612       13.3330828484
  O         4.5139794329        2.6069779711        0.4588371822
  H         5.2889553782        2.6052014687        0.4621295595
  H         4.1382190379        3.2727238790        0.4603849872
  O         6.7792213929        1.3009662488        2.3016703533
  H         7.5469410319        1.3176956270        2.3053718285
  H         6.3936370897        1.9691443033        2.2996759272
  O         4.5139154649        2.6068844489        4.1338541702
  H         5.2798210603        2.6025257391        4.1368048060
  H         4.1422837330        3.2716471715        4.1345517385
  O         6.7806436651        1.3021275916        5.9799577326
  H         7.5455099832        1.3036633830        5.9859020196
  H         6.3953197671        1.9658570823        5.9749131977
  O         4.5164144035        2.6091058833        7.8181734230
  H         5.2879795917        2.6012216643        7.8169355862
  H         4.1330258708        3.2746632722        7.8142508012
  O         6.7788700277        1.3014292333        9.6565628814
  H         7.5376498325        1.3100871531        9.6463002698
  H         6.3939814601        1.9629552056        9.6635848696
  O         4.5158117378        2.6092546027       11.4968036877
  H         5.2928651178        2.6132415101       11.5039600474
  H         4.1376676169        3.2747127197       11.4953470730
  O         6.7788631813        1.3039623282       13.3272563638
  H         7.5483354960        1.3104075895       13.3481720402
  H         6.3926690303        1.9621544270       13.3301528715
  O         2.2600314547        6.5162445324        0.4613158357
  H         3.0209605257        6.5301275258        0.4547973917
  H         1.8695881978        7.1816135961        0.4566774566
  O         4.5157982996        5.2119618616        2.2981255204
  H         5.2775799336        5.2064741936        2.3107562805
  H         4.1306538932        5.8807217236        2.2889448866
  O         2.2592515246        6.5193529575        4.1350194835
  H         3.0277165966        6.5351065331        4.1345607555
  H         1.8721389960        7.1919196393        4.1506677421
  O         4.5129343203        5.2168615201        5.9745667901
  H         5.2843800545        5.2053289143        5.9765664410
  H         4.1307970763        5.8892190941        5.9829685111
  O         2.2560310648        6.5191837237        7.8145390543
  H         3.0241996240        6.5250197144        7.8226245264
  H         1.8745087130        7.1962276060        7.8145512013
  O         4.5194882513        5.2141767830        9.6560704764
  H         5.2954490526        5.2242779112        9.6482112670
  H         4.1324167077        5.8843843790        9.6537892961
  O         2.2569381982        6.5201915170       11.4914433329
  H         3.0288004821        6.5220879903       11.4945621162
  H         1.8732160829        7.1858011305       11.4812026467
  O         4.5167272458        5.2173908393       13.3306286563
  H         5.2781101632        5.2182223560       13.3412483735
  H         4.1366868464        5.8833528100       13.3314131019
      96
 i =        2, time =        2.000, E =      -372.5457002157
  O         0.0049958909        2.6006336016        0.4587850297
  H         0.7998767207        2.6032707779        0.4539166903
  H        -0.4002474172        3.2867409177        0.4477561714
  O         2.2664459041        1.2937805008        2.3024415676
  H         3.0747183059        1.2958496140        2.3039718914
  H         1.8707995963        1.9824306828        2.3161348874
  O        -0.0018874923        2.6025583265        4.1420326177
  H         0.7720920243        2.5915719237        4.1285838684
  H        -0.4098286888        3.3039735621        4.1257949350
  O         2.2560396414        1.3092837252        5.9739527393
  H         3.0491850864        1.3269313653        5.9695735624
  H         1.8708393665        1.9903793822        5.9943392217
  O        -0.0025415703        2.6059732741        7.8107818421
  H         0.7874328928        2.6083767183        7.8284005845
  H        -0.3963738591        3.3214317234        7.8149802366
  O         2.2656827964        1.3031718239        9.6564673733
  H         3.0523019519        1.2864090758        9.6699098496
  H         1.8600605616        1.9971378651        9.6596097244
  O         0.0005624632        2.6047235100       11.4931842996
  H         0.7866063798        2.6215851659       11.5008262158
  H        -0.3900653577        3.2955055954       11.5211034591
  O         2.2523619722        1.3010718561       13.3304148647
  H         3.0662844362        1.3044636750       13.3280385733
  H         1.8279230262        1.9850504785       13.3386400571
  O        -2.2655766581        6.5207945161        0.4571578470
  H        -1.4474553950        6.5349291697        0.4767838799
  H        -2.6499992413        7.1920993492        0.4664779522
  O        -0.0006896154        5.2135140161        2.2991181235
  H         0.7736404270        5.2145412031        2.3070965188
  H        -0.4121090814        5.9044677444        2.2955327605
  O        -2.2617289000        6.5229265041        4.1424568661
  H        -1.4717265310        6.5301904167        4.1503211083
  H        -2.6294217094        7.2263054616        4.1532510426
  O        -0.0002543378        5.2083709845        5.9733309834
  H         0.8167649057        5.2293161930        5.9693578400
  H        -0.4124468741        5.8913585308        5.9820241053
  O        -2.2691533363        6.5205981751        7.8137639075
  H        -1.4693079030        6.5461566735        7.8234319537
  H        -2.6556633773        7.2090566291        7.8162287604
  O        -0.0087940952        5.2126362096        9.6558034128
  H         0.7960943023        5.2200843210        9.6326440837
  H        -0.4033267899        5.8915379542        9.6481787386
  O        -2.2635118090        6.5150812305       11.4923473380
  H        -1.4635595959        6.5140293007       11.4925219605
  H        -2.6760095380        7.1887785742       11.4926635266
  O        -0.0034810382        5.2104710247       13.3283616344
  H         0.8021628404        5.2221079921       13.3069333550
  H        -0.3890891536        5.9241998907       13.3335065641
  O         4.5088994205        2.6032359841        0.4579590188
  H         5.3191307117        2.6029664955        0.4646347452
  H         4.1294975811        3.2975946371        0.4611161431
  O         6.7801675931        1.2956022827        2.3045342166
  H         7.5782400075        1.3325008055        2.3120348260
  H         6.3811876917        1.9936261094        2.3005093804
  O         4.5086760090        2.6031392789        4.1299975796
  H         5.3024228707        2.5968217158        4.1359798267
  H         4.1368205010        3.2955196028        4.1314215114
  O         6.7830432775        1.2979874340        5.9831130534
  H         7.5748966369        1.3041976633        5.9951354309
  H         6.3847823215        1.9867849319        5.9729150132
  O         4.5136686554        2.6075992217        7.8206613569
  H         5.3170589520        2.5952793617        7.8181382530
  H         4.1200361908        3.3003506822        7.8127144559
  O         6.7794268521        1.2966239404        9.6584356138
  H         7.5606834361        1.3165377752        9.6376467155
  H         6.3811443709        1.9812218265        9.6726389986
  O         4.5125843462        2.6077577893       11.4997919237
  H         5.3268050592        2.6192356392       11.5142675822
  H         4.1283755554        3.3016402288       11.4968676312
  O         6.7796622334        1.3015523595       13.3217424305
  H         7.5796879802        1.3177533193       13.3641139072
  H         6.3789121193        1.9801414240       13.3277099018
  O         2.2596703685        6.5092671611        0.4629658738
  H         3.0448512508        6.5400300953        0.4497197763
  H         1.8511638112        7.2012030589        0.4535498017
  O         4.5122177734        5.2050534978        2.2974368000
  H         5.2983716430        5.1971518799        2.3230095398
  H         4.1151925072        5.9030072446        2.2789129089
  O         2.2581403346        6.5154097550        4.1322958807
  H         3.0575009095        6.5504622442        4.1314334180
  H         1.8568942434        7.2219246474        4.1639772255
  O         4.5066100810        5.2147545189        5.9723016912
  H         5.3102082151        5.1954422602        5.9763988008
  H         4.1162831101        5.9202022710        5.9893237958
  O         2.2516585049        6.5151058101        7.8133513672
  H         3.0503853082        6.5301748726        7.8297493070
  H         1.8620334113        7.2303771582        7.8134167828
  O         4.5197895819        5.2092700587        9.6574715711
  H         5.3324939018        5.2335974195        9.6415445425
  H         4.1188063068        5.9111941477        9.6528128175
  O         2.2537151614        6.5170383253       11.4891096436
  H         3.0581825378        6.5242616587       11.4953771136
  H         1.8589352794        7.2102340938       11.4683689861
  O         4.5141493126        5.2158452223       13.3285213786
  H         5.3000244487        5.2201818459       13.3500570588
  H         4.1260829303        5.9092625270       13.3301523174
      96
 i =        3, time =        3.000, E =      -372.8475927929
  O         0.0055597266        2.5934255971        0.4583899111
  H         0.8431410861        2.6055032899        0.4508422907
  H        -0.4175378266        3.3191460604        0.4414791619
  O         2.2684976062        1.2850772092        2.3041968175
  H         3.1244379584        1.2970305435        2.3066932226
  H         1.8593187741        2.0158389665        2.3251753773
  O        -0.0054680004        2.5967618081        4.1443125377
  H         0.8053560530        2.5875469161        4.1235211340
  H        -0.4302241361        3.3418396910        4.1194302054
  O         2.2528943611        1.3083916470        5.9724595749
  H         3.0898576219        1.3415096233        5.9659221974
  H         1.8556186234        2.0294112218        6.0036954355
  O        -0.0062898771        2.6016153618        7.8082300827
  H         0.8274380109        2.6132426110        7.8353004818
  H        -0.4103782240        3.3696743513        7.8148212225
  O         2.2668107901        1.2996001456        9.6572788624
  H         3.0932418709        1.2827102852        9.6779009060
  H         1.8450713297        2.0345849635        9.6622441441
  O        -0.0012176222        2.5996087061       11.4927413074
  H         0.8267986937        2.6314577942       11.5046628216
  H        -0.4047915562        3.3334464130       11.5355071752
  O         2.2473101424        1.2960131036       13.3292448855
  H         3.1095001575        1.3119419811       13.3257380937
  H         1.7977769635        2.0177831022       13.3417903866
  O        -2.2699327844        6.5167310477        0.4557761817
  H        -1.4014499425        6.5458445088        0.4857760702
  H        -2.6664350485        7.2262741001        0.4702783201
  O        -0.0034766164        5.2089042720        2.2992561492
  H         0.8079908460        5.2177469005        2.3114567496
  H        -0.4351153563        5.9389076649        2.2938698258
  O        -2.2651565095        6.5205116034        4.1447632562
  H        -1.4308508425        6.5372981960        4.1568850209
  H        -2.6346861495        7.2743952279        4.1613395052
  O        -0.0019254466        5.2004760271        5.9715744037
  H         0.8656250448        5.2419162660        5.9656109638
  H        -0.4356848833        5.9229200206        5.9848565993
  O        -2.2759451985        6.5168110109        7.8127485922
  H        -1.4296941180        6.5622734491        7.8275646214
  H        -2.6743463845        7.2491621179        7.8165984365
  O        -0.0146956430        5.2069634726        9.6564714424
  H         0.8363821870        5.2263043643        9.6210291402
  H        -0.4240681312        5.9242389597        9.6445539642
  O        -2.2674271132        6.5086630685       11.4916141576
  H        -1.4246926301        6.5156078834       11.4919118412
  H        -2.7016687272        7.2162005833       11.4921207561
  O        -0.0073094328        5.2038818810       13.3262588794
  H         0.8478020433        5.2300257089       13.2935209285
  H        -0.4004056690        5.9712226928       13.3339120419
  O         4.5027041966        2.5970475399        0.4570487924
  H         5.3618382838        2.6046235487        0.4672824383
  H         4.1169793525        3.3380703458        0.4619623048
  O         6.7797589682        1.2879227375        2.3073848938
  H         7.6247752745        1.3514508227        2.3188454880
  H         6.3643948346        2.0322966656        2.3012922679
  O         4.5022031816        2.5971069156        4.1261188539
  H         5.3395112728        2.5938841122        4.1352817480
  H         4.1265379189        3.3348631065        4.1283458127
  O         6.7841041687        1.2916126881        5.9862629783
  H         7.6187120491        1.3087118812        6.0045559325
  H         6.3705737616        2.0214021719        5.9707740960
  O         4.5096641849        2.6037779106        7.8231806537
  H         5.3584138521        2.5937793784        7.8192453906
  H         4.1046568385        3.3400521567        7.8110131936
  O         6.7785790340        1.2896533567        9.6603295864
  H         7.6000769977        1.3262156742        9.6285871993
  H         6.3632246041        2.0133779550        9.6819183300
  O         4.5082802273        2.6037686905       11.5027480987
  H         5.3730922181        2.6293473184       11.5248145689
  H         4.1151626806        3.3443254951       11.4984016870
  O         6.7793879060        1.2967558016       13.3160831240
  H         7.6242088120        1.3291386747       13.3808790835
  H         6.3606393914        2.0129671645       13.3256320660
  O         2.2577856497        6.5001163024        0.4646875069
  H         3.0847827563        6.5538237703        0.4442876918
  H         1.8286672055        7.2342620971        0.4501912097
  O         4.5070982111        5.1960341597        2.2967159525
  H         5.3340785097        5.1919508687        2.3357116581
  H         4.0971768138        5.9378572078        2.2686989303
  O         2.2555353454        6.5091938228        4.1294843385
  H         3.1023698336        6.5702305068        4.1284491017
  H         1.8382992066        7.2656512423        4.1778674915
  O         4.4988778671        5.2103786712        5.9699684307
  H         5.3488268520        5.1904690681        5.9764298281
  H         4.1002907757        5.9642139530        5.9960226258
  O         2.2457124305        6.5088043042        7.8121072132
  H         3.0916485947        6.5395824498        7.8372375580
  H         1.8468360967        7.2780107097        7.8123719310
  O         4.5188288358        5.2019494599        9.6589366821
  H         5.3825249380        5.2479580063        9.6345539801
  H         4.1023628617        5.9520689987        9.6516509580
  O         2.2492431225        6.5115298009       11.4868250074
  H         3.1005535328        6.5307314645       11.4961900187
  H         1.8414590062        7.2491525823       11.4551442853
  O         4.5101515354        5.2121237932       13.3263391015
  H         5.3376497325        5.2254620367       13.3593356692
  H         4.1111862438        5.9490551240       13.3290175655
      96
 i =        4, time =        4.000, E =      -373.1602348138
  O         0.0046689018        2.5837392061        0.4580751730
  H         0.8965090337        2.6150886329        0.4474800271
  H        -0.4334902945        3.3639464516        0.4348532808
  O         2.2693283217        1.2737646932        2.3058700720
  H         3.1829680037        1.3056915356        2.3096593115
  H         1.8488363513        2.0624451863        2.3346126610
  O        -0.0110524059        2.5888204852        4.1467424239
  H         0.8516411205        2.5908346562        4.1177662285
  H        -0.4478398411        3.3894992255        4.1125413166
  O         2.2485524944        1.3049762354        5.9708805349
  H         3.1418292539        1.3619714047        5.9623851736
  H         1.8387267728        2.0825309148        6.0136166191
  O        -0.0118652237        2.5950600967        7.8055666388
  H         0.8797289173        2.6251228791        7.8427888210
  H        -0.4222694113        3.4284253723        7.8149836301
  O         2.2662400397        1.2936705694        9.6579956671
  H         3.1450835169        1.2868900409        9.6863241351
  H         1.8327656760        2.0828237635        9.6651860993
  O        -0.0044980396        2.5921383127       11.4921328302
  H         0.8794649805        2.6473160818       11.5090291913
  H        -0.4201552602        3.3841995540       11.5507013919
  O         2.2409852676        1.2882646814       13.3280380522
  H         3.1599560919        1.3285927280       13.3235517553
  H         1.7706097042        2.0626628938       13.3451157168
  O        -2.2750273939        6.5098397136        0.4542604775
  H        -1.3482089553        6.5630422862        0.4952463670
  H        -2.6843265117        7.2766821407        0.4746523013
  O        -0.0080852501        5.2020462281        2.2993652119
  H         0.8553015986        5.2282899120        2.3160140047
  H        -0.4565311849        5.9837947656        2.2922484913
  O        -2.2700876632        6.5157826703        4.1469837305
  H        -1.3772220924        6.5495512494        4.1637720880
  H        -2.6408686816        7.3357783885        4.1697810752
  O        -0.0046492863        5.1898887774        5.9697887750
  H         0.9219210910        5.2625638484        5.9619183826
  H        -0.4578936294        5.9677658578        5.9878860482
  O        -2.2839342904        6.5105212290        7.8116779194
  H        -1.3793944757        6.5842875483        7.8319681367
  H        -2.6943210834        7.3033156927        7.8171361561
  O        -0.0216876438        5.1986317468        9.6572867013
  H         0.8856317389        5.2395345571        9.6087838699
  H        -0.4449906600        5.9709912188        9.6403577590
  O        -2.2726090440        6.4996442700       11.4908741752
  H        -1.3773531218        6.5249701445       11.4913337285
  H        -2.7258323451        7.2565561756       11.4915995928
  O        -0.0125920119        5.1949587919       13.3242322006
  H         0.9039638138        5.2448190111       13.2796502949
  H        -0.4105882195        6.0298425472       13.3341717726
  O         4.4953132988        2.5882798769        0.4560904835
  H         5.4135634586        2.6128064387        0.4701283020
  H         4.1048468488        3.3925529551        0.4629979570
  O         6.7780007734        1.2778533330        2.3102170353
  H         7.6826328453        1.3770338974        2.3258162148
  H         6.3471060360        2.0832819064        2.3020531228
  O         4.4943653065        2.5886291034        4.1222067133
  H         5.3877428109        2.5965764446        4.1347514578
  H         4.1158494281        3.3880539420        4.1253748607
  O         6.7837181264        1.2827843177        5.9894045839
  H         7.6735555429        1.3202657508        6.0141446778
  H         6.3569223115        2.0683959673        5.9685310608
  O         4.5042571741        2.5974208461        7.8257499275
  H         5.4088945248        2.5997274792        7.8201727540
  H         4.0912093417        3.3925031198        7.8090763429
  O         6.7762508424        1.2803033810        9.6622566032
  H         7.6521662970        1.3422313108        9.6190980009
  H         6.3444580549        2.0580229183        9.6913474149
  O         4.5028685950        2.5971920506       11.5056572110
  H         5.4279518215        2.6460303157       11.5356318333
  H         4.1020750218        3.4010539506       11.5000413228
  O         6.7779813417        1.2893545520       13.3101990210
  H         7.6782270122        1.3475045795       13.3987156624
  H         6.3419648587        2.0594397836       13.3243178751