#     Step Nr.          Time[fs]        Kin.[a.u.]          Temp[K]            Pot.[a.u.]        Cons Qty[a.u.]        UsedTime[s]
         0            0.000000         0.042419492        94.000000000      -372.114027701      -372.071608209         0.000000000
         1            1.000000         0.136591614       302.681887450      -372.314868235      -372.178276620        17.428527000
         2            2.000000         0.362386394       803.034637497      -372.545700216      -372.183313822         7.854147000
         3            3.000000         0.657373634      1456.715282875      -372.847592793      -372.190219159         7.579060000
         4            4.000000         0.957310565      2121.364257767      -373.160234814      -372.202924248         6.725306000
         5            5.000000         1.154731309      2558.841210979      -373.375784542      -372.221053233         6.183666000
         6            6.000000         1.147518709      2542.858360398      -373.377832384      -372.230313675         5.753618000
         7            7.000000         0.936329530      2074.871071053      -373.167724505      -372.231394975         5.475489000
         8            8.000000         0.633173838      1403.089443206      -372.858244322      -372.225070484         5.489878000
         9            9.000000         0.387233922       858.095828038      -372.604914347      -372.217680424         5.723009000
        10           10.000000         0.310095733       687.160496479      -372.526115021      -372.216019289         5.735345000
        11           11.000000         0.437326357       969.098781412      -372.655415445      -372.218089088         5.699536000
        12           12.000000         0.713738334      1581.617341420      -372.941662253      -372.227923919         5.467242000
        13           13.000000         0.994201330      2203.112806105      -373.235899567      -372.241698237         5.492220000
        14           14.000000         1.086117437      2406.795447378      -373.329068937      -372.242951500         5.478828000
        15           15.000000         0.873365067      1935.344186715      -373.101989031      -372.228623964         5.522428000
        16           16.000000         0.476494185      1055.893217249      -372.679801114      -372.203306929         5.339110000
        17           17.000000         0.239049312       529.724297219      -372.423526187      -372.184476875         5.244271000
        18           18.000000         0.405772053       899.175630249      -372.599624888      -372.193852834         5.226592000
        19           19.000000         0.845888583      1874.457329978      -373.062397740      -372.216509157         5.222243000
        20           20.000000         1.225943980      2716.645815314      -373.454103226      -372.228159246         5.279881000
        21           21.000000         1.333439997      2954.852951634      -373.561203152      -372.227763155         5.472708000
        22           22.000000         1.158106605      2566.320739686      -373.380098187      -372.221991582         5.466290000
        23           23.000000         0.810135585      1795.230029194      -373.024118411      -372.213982826         5.509866000
        24           24.000000         0.433690057       961.040877397      -372.641074729      -372.207384672         5.717651000
        25           25.000000         0.152773807       338.541018605      -372.356477629      -372.203703822         5.753835000
        26           26.000000         0.045134128       100.015532228      -372.247747264      -372.202613136         5.739849000
        27           27.000000         0.134780874       298.669354010      -372.338060382      -372.203279508         5.837965000
        28           28.000000         0.392811176       870.454812133      -372.599567261      -372.206756085         5.252545000
        29           29.000000         0.741917283      1644.060834322      -372.952631390      -372.210714106         5.487408000
        30           30.000000         1.068335501      2367.391346145      -373.284619184      -372.216283682         5.491029000
        31           31.000000         1.246939712      2763.171567908      -373.467716285      -372.220776574         5.488795000
        32           32.000000         1.182456032      2620.278155922      -373.405129953      -372.222673921         5.516316000
        33           33.000000         0.875034033      1939.042552111      -373.088496941      -372.213462908         5.450357000
        34           34.000000         0.495613845      1098.261665943      -372.690234615      -372.194620770         5.253398000
        35           35.000000         0.336645948       745.994776509      -372.521097000      -372.184451052         5.230894000
        36           36.000000         0.537686006      1191.491993871      -372.737874897      -372.200188891         5.247888000
        37           37.000000         0.900792374      1996.122069278      -373.125586802      -372.224794428         6.497736000
        38           38.000000         1.102270338      2442.589669198      -373.336594158      -372.234323821         5.527806000
        39           39.000000         1.003549464      2223.827921040      -373.231318874      -372.227769410         5.497574000
        40           40.000000         0.704189335      1560.457118505      -372.922015509      -372.217826173         5.474090000
        41           41.000000         0.398922714       883.997752313      -372.607248460      -372.208325745         5.708030000
        42           42.000000         0.244364061       541.501581946      -372.447999884      -372.203635823         6.225066000
        43           43.000000         0.307863367       682.213658532      -372.511892638      -372.204029271         6.254010000
        44           44.000000         0.564706340      1251.368040188      -372.772808777      -372.208102437         5.757196000
        45           45.000000         0.909283245      2014.937519302      -373.125239779      -372.215956534         5.717756000
        46           46.000000         1.185093902      2626.123575564      -373.407526137      -372.222432236         5.490081000
        47           47.000000         1.254062682      2778.955802117      -373.476112067      -372.222049385         5.703709000
        48           48.000000         1.083753562      2401.557189874      -373.294540762      -372.210787200         5.747822000
        49           49.000000         0.768780151      1703.587941240      -372.967124545      -372.198344394         5.489152000
        50           50.000000         0.446227518       988.823420694      -372.637147667      -372.190920149         6.191948000
        51           51.000000         0.209024901       463.191329140      -372.397777474      -372.188752573         6.385020000
        52           52.000000         0.105262852       233.258526469      -372.294050087      -372.188787235         5.936578000
        53           53.000000         0.144597895       320.423503767      -372.336051762      -372.191453867         5.913227000
        54           54.000000         0.286698361       635.312800606      -372.479735688      -372.193037326         6.239272000
        55           55.000000         0.487239100      1079.703546265      -372.679328149      -372.192089049         6.178116000
        56           56.000000         0.726412302      1609.702378056      -372.921002724      -372.194590422         5.734166000
        57           57.000000         0.956190409      2118.882034183      -373.159806069      -372.203615660         5.739799000
        58           58.000000         1.084434279      2403.065632888      -373.297607860      -372.213173581         5.727817000
        59           59.000000         1.047394483      2320.986835255      -373.260660982      -372.213266500         5.476758000
        60           60.000000         0.870431666      1928.843879682      -373.079148093      -372.208716427         5.478015000
        61           61.000000         0.651116565      1442.849852422      -372.854501895      -372.203385331         5.742678000
        62           62.000000         0.498992358      1105.748323595      -372.698735592      -372.199743234         6.240957000
        63           63.000000         0.484130139      1072.814204304      -372.684329441      -372.200199302         5.716165000
        64           64.000000         0.610901712      1353.735249543      -372.815158913      -372.204257201         5.785942000
        65           65.000000         0.808868271      1792.421707580      -373.021846969      -372.212978698         5.489779000
        66           66.000000         0.944315997      2092.568782651      -373.167598931      -372.223282934         5.480044000
        67           67.000000         0.882614949      1955.841577877      -373.108552339      -372.225937390         5.465848000
        68           68.000000         0.614249724      1361.154318617      -372.825921326      -372.211671602         5.484293000
        69           69.000000         0.342509444       758.988063610      -372.532655774      -372.190146330         5.017612000
        70           70.000000         0.343991193       762.271563616      -372.528881318      -372.184890125         4.967665000
        71           71.000000         0.669715397      1484.064165391      -372.871073909      -372.201358513         5.000069000
        72           72.000000         1.087344815      2409.515270218      -373.305744004      -372.218399190         5.242298000
        73           73.000000         1.332535736      2952.849142742      -373.554657309      -372.222121573         5.049463000
        74           74.000000         1.302723443      2886.786220148      -373.520676531      -372.217953088         5.278522000
        75           75.000000         1.049733859      2326.170805667      -373.258324597      -372.208590738         5.476620000
        76           76.000000         0.695708300      1541.663463705      -372.897489929      -372.201781629         5.518244000
        77           77.000000         0.365016987       808.863934406      -372.561879813      -372.196862825         5.726261000
        78           78.000000         0.148847875       329.841300140      -372.343284571      -372.194436696         6.190199000
        79           79.000000         0.094087318       208.493962479      -372.288216467      -372.194129149         5.930762000
        80           80.000000         0.204671280       453.543869361      -372.400896657      -372.196225377         5.478317000
        81           81.000000         0.446744929       989.969983920      -372.646799958      -372.200055029         5.580716000
        82           82.000000         0.754198525      1671.275605566      -372.958826670      -372.204628145         6.062587000
        83           83.000000         1.036305619      2296.414330336      -373.246276648      -372.209971028         5.488027000
        84           84.000000         1.192960216      2643.555031943      -373.407655905      -372.214695689         5.498067000
        85           85.000000         1.147926856      2543.762798785      -373.365071496      -372.217144639         5.500723000
        86           86.000000         0.910076887      2016.696201432      -373.118515608      -372.208438720         5.472047000
        87           87.000000         0.626550408      1388.412172581      -372.820530796      -372.193980388         5.493563000
        88           88.000000         0.513478327      1137.848686473      -372.703452551      -372.189974224         5.011630000
        89           89.000000         0.647310368      1434.415463830      -372.849269472      -372.201959104         5.445193000
        90           90.000000         0.867166735      1921.608914856      -373.085419592      -372.218252858         5.468737000
        91           91.000000         0.947692400      2100.050764763      -373.171345412      -372.223653012         5.565304000
        92           92.000000         0.813643661      1803.003792633      -373.031053842      -372.217410181         5.446239000
        93           93.000000         0.562994710      1247.575132922      -372.770787453      -372.207792742         5.645920000
        94           94.000000         0.353283012       782.861885093      -372.554277325      -372.200994313         6.488192000
        95           95.000000         0.300122623       665.060461204      -372.498694069      -372.198571445         6.422292000
        96           96.000000         0.437591313       969.685914586      -372.638967088      -372.201375775         6.110134000
        97           97.000000         0.716641576      1588.050816831      -372.925030560      -372.208388984         5.672648000
        98           98.000000         1.022864691      2266.629737838      -373.239513845      -372.216649154         5.624080000
        99           99.000000         1.218794095      2700.801938297      -373.439391007      -372.220596912         5.560328000
       100          100.000000         1.211976543      2685.694498196      -373.430611468      -372.218634925         5.574282000
       101          101.000000         1.012367265      2243.367836322      -373.221364604      -372.208997339         5.476134000
       102          102.000000         0.721331940      1598.444486157      -372.920077470      -372.198745530         5.705225000
       103          103.000000         0.450062896       997.322474753      -372.643450788      -372.193387891         5.969285000
       104          104.000000         0.254329140       563.583821812      -372.448377053      -372.194047913         5.970683000
       105          105.000000         0.149004869       330.189192362      -372.342771839      -372.193766971         6.114452000
       106          106.000000         0.144049686       319.208694689      -372.337815302      -372.193765616         5.964019000
       107          107.000000         0.235061482       520.887415725      -372.429522664      -372.194461182         5.949846000
       108          108.000000         0.402476467       891.872734876      -372.596678703      -372.194202235         5.954118000
       109          109.000000         0.626135371      1387.492466196      -372.822202046      -372.196066675         6.432778000
       110          110.000000         0.862062014      1910.297044910      -373.064423256      -372.202361242         6.431108000
       111          111.000000         1.033249920      2289.643015741      -373.243044808      -372.209794888         6.198484000
       112          112.000000         1.076249217      2384.927841445      -373.289196809      -372.212947592         5.966642000
       113          113.000000         0.987325175      2187.875504202      -373.198060548      -372.210735373         5.481990000
       114          114.000000         0.821025548      1819.361778475      -373.027268257      -372.206242709         5.475804000
       115          115.000000         0.656475537      1454.725133562      -372.858700927      -372.202225390         5.483664000
       116          116.000000         0.561469701      1244.195770088      -372.762836070      -372.201366369         5.506165000
       117          117.000000         0.565803371      1253.799019618      -372.768400205      -372.202596834         5.466636000
       118          118.000000         0.645103747      1429.525675256      -372.852270955      -372.207167207         5.477726000
       119          119.000000         0.723434400      1603.103458596      -372.936386491      -372.212952091         5.502612000
       120          120.000000         0.713786243      1581.723505683      -372.928317695      -372.214531452         5.521550000
       121          121.000000         0.597606240      1324.272983335      -372.804475747      -372.206869507         5.504392000
       122          122.000000         0.477116370      1057.271955533      -372.673350288      -372.196233918         5.497262000
       123          123.000000         0.502915661      1114.442216349      -372.695503884      -372.192588223         4.981511000
       124          124.000000         0.716467495      1587.665059508      -372.917236664      -372.200769169         4.983576000
       125          125.000000         1.000323846      2216.680071083      -373.210903248      -372.210579402         5.489925000
       126          126.000000         1.191766010      2640.908718223      -373.406302751      -372.214536741         5.234144000
       127          127.000000         1.200540531      2660.352726263      -373.413255901      -372.212715370         5.471537000
       128          128.000000         1.032522740      2288.031611400      -373.240579781      -372.208057042         5.540962000
       129          129.000000         0.757597271      1678.807098930      -372.961243304      -372.203646033         5.500397000
       130          130.000000         0.469076136      1039.455100582      -372.667298270      -372.198222133         5.489691000
       131          131.000000         0.250913760       556.015468838      -372.445137381      -372.194223621         5.511402000
       132          132.000000         0.158013128       350.151156278      -372.351626499      -372.193613371         5.511148000
       133          133.000000         0.209569571       464.398299061      -372.403884826      -372.194315255         5.534048000
       134          134.000000         0.389897785       863.998846903      -372.587113149      -372.197215365         5.504114000
       135          135.000000         0.651242152      1443.128149421      -372.852839435      -372.201597283         5.547823000
       136          136.000000         0.918519431      2035.404560240      -373.125731363      -372.207211932         5.512677000
       137          137.000000         1.102763985      2443.683572596      -373.316070903      -372.213306918         5.461632000
       138          138.000000         1.131907900      2508.265393814      -373.346154631      -372.214246731         5.480557000
       139          139.000000         0.997541195      2210.513822195      -373.207274845      -372.209733650         5.527109000
       140          140.000000         0.786373652      1742.574477126      -372.987462272      -372.201088620         5.495132000
       141          141.000000         0.637901907      1413.566667016      -372.834636948      -372.196735041         5.011298000
       142          142.000000         0.627650316      1390.849526520      -372.827449269      -372.199798953         5.011881000
       143          143.000000         0.698235487      1547.263615507      -372.906403036      -372.208167549         5.467629000
       144          144.000000         0.732715628      1623.670311802      -372.944172907      -372.211457280         5.471276000
       145          145.000000         0.674572689      1494.827742376      -372.884962299      -372.210389611         5.456865000
       146          146.000000         0.558041181      1236.598297126      -372.763354061      -372.205312880         5.527588000
       147          147.000000         0.461264720      1022.145295754      -372.663338457      -372.202073737         5.500194000
       148          148.000000         0.453652843      1005.277660486      -372.653836235      -372.200183393         5.958166000
       149          149.000000         0.562645386      1246.801043429      -372.764178007      -372.201532620         5.475989000
       150          150.000000         0.760555571      1685.362579862      -372.965698521      -372.205142950         5.493728000
       151          151.000000         0.972452059      2154.917239921      -373.182860735      -372.210408676         5.494166000
       152          152.000000         1.106469100      2451.893967332      -373.320345721      -372.213876622         5.475810000
       153          153.000000         1.099950895      2437.449869800      -373.311706332      -372.211755438         5.493254000
       154          154.000000         0.955315129      2116.942445001      -373.160830449      -372.205515320         5.942875000
       155          155.000000         0.732973409      1624.241544984      -372.932614822      -372.199641413         6.524072000
       156          156.000000         0.505410251      1119.970133785      -372.700242855      -372.194832604         6.427521000
       157          157.000000         0.322317141       714.242679360      -372.515090302      -372.192773160         6.851220000
       158          158.000000         0.212927801       471.840009663      -372.406258370      -372.193330569         6.287221000
       159          159.000000         0.196136697       434.631553485      -372.390239112      -372.194102415         6.903796000
       160          160.000000         0.277221621       614.312699075      -372.472428716      -372.195207095         6.279396000
       161          161.000000         0.437903992       970.378799656      -372.635654034      -372.197750041         6.910055000
       162          162.000000         0.632756332      1402.164266758      -372.834929580      -372.202173247         6.656344000
       163          163.000000         0.805640226      1785.268482367      -373.012225693      -372.206585467         6.691510000
       164          164.000000         0.914097329      2025.605349057      -373.122510023      -372.208412694         6.668675000
       165          165.000000         0.941113684      2085.472576479      -373.149726159      -372.208612475         6.881798000
       166          166.000000         0.894741721      1982.714049378      -373.102081967      -372.207340246         6.651249000
       167          167.000000         0.803055355      1779.540505493      -373.009388918      -372.206333563         6.194657000
       168          168.000000         0.703989487      1560.014261523      -372.909639088      -372.205649601         6.441318000
       169          169.000000         0.631653627      1399.720712813      -372.836698868      -372.205045242         5.629276000
       170          170.000000         0.604324593      1339.160601344      -372.811042693      -372.206718099         6.223528000
       171          171.000000         0.616006763      1365.047851102      -372.823907457      -372.207900694         5.668307000
       172          172.000000         0.639172441      1416.382122097      -372.848760082      -372.209587641         5.583426000
       173          173.000000         0.646434896      1432.475450068      -372.855381115      -372.208946219         5.606515000
       174          174.000000         0.637335302      1412.311091325      -372.844431715      -372.207096413         5.614707000
       175          175.000000         0.640589305      1419.521841023      -372.845334316      -372.204745011         5.567956000
       176          176.000000         0.687664180      1523.837995350      -372.891707401      -372.204043220         5.596142000
       177          177.000000         0.783649746      1736.538404304      -372.990190035      -372.206540289         5.588593000
       178          178.000000         0.895782138      1985.019572744      -373.104190161      -372.208408023         5.600634000
       179          179.000000         0.969779282      2148.994464552      -373.181143599      -372.211364317         5.387917000
       180          180.000000         0.967559859      2144.076308212      -373.178080204      -372.210520345         5.607059000
       181          181.000000         0.886683499      1964.857331765      -373.095149571      -372.208466072         5.588752000
       182          182.000000         0.749091454      1659.958527622      -372.956590431      -372.207498977         5.615977000
       183          183.000000         0.590350901      1308.195424331      -372.794559743      -372.204208842         5.636404000
       184          184.000000         0.453854532      1005.724596533      -372.655114188      -372.201259656         5.677851000
       185          185.000000         0.379677145       841.350294025      -372.580116527      -372.200439382         5.691545000
       186          186.000000         0.391362403       867.244386814      -372.591278448      -372.199916045         6.191823000
       187          187.000000         0.487525022      1080.337138253      -372.689253324      -372.201728302         5.658602000
       188          188.000000         0.640222514      1418.709044785      -372.844794353      -372.204571839         5.636588000
       189          189.000000         0.800576767      1774.048046322      -373.009956472      -372.209379705         5.698287000
       190          190.000000         0.914032670      2025.462067791      -373.126968978      -372.212936308         5.584560000
       191          191.000000         0.944581052      2093.156133617      -373.156341053      -372.211760001         5.623489000
       192          192.000000         0.895571719      1984.553293302      -373.104720729      -372.209149010         5.548818000
       193          193.000000         0.807567985      1789.540323900      -373.013311387      -372.205743401         5.493451000
       194          194.000000         0.730843417      1619.521563532      -372.933936149      -372.203092731         5.533978000
       195          195.000000         0.693183663      1536.068961909      -372.896666020      -372.203482357         5.644111000
       196          196.000000         0.687334076      1523.106498160      -372.894303304      -372.206969227         5.666152000
       197          197.000000         0.685596737      1519.256618602      -372.892977778      -372.207381041         5.549851000
       198          198.000000         0.667772644      1479.759097571      -372.874492222      -372.206719578         5.682037000
       199          199.000000         0.638998748      1415.997225149      -372.845175722      -372.206176974         5.707167000
       200          200.000000         0.619760512      1373.366018318      -372.824454147      -372.204693635         5.687941000
       201          201.000000         0.626858924      1389.095831866      -372.832516537      -372.205657613         5.834789000
       202          202.000000         0.667533597      1479.229380306      -372.872894248      -372.205360650         6.127175000
       203          203.000000         0.737292234      1633.811899883      -372.944865075      -372.207572840         5.983903000
       204          204.000000         0.817274758      1811.050167788      -373.026457636      -372.209182879         6.087865000
       205          205.000000         0.878144287      1945.934757582      -373.088804138      -372.210659851         6.062320000
       206          206.000000         0.891921340      1976.464189934      -373.102516384      -372.210595044         6.135613000
       207          207.000000         0.844965264      1872.411288841      -373.054829809      -372.209864545         6.581118000
       208          208.000000         0.744212691      1649.147371956      -372.951875184      -372.207662493         6.822929000
       209          209.000000         0.616158702      1365.384541771      -372.819282261      -372.203123559         6.941936000
       210          210.000000         0.498610180      1104.901431189      -372.699016764      -372.200406584         6.161996000
       211          211.000000         0.425822046       943.605661097      -372.622754805      -372.196932759         6.559690000
       212          212.000000         0.421291599       933.566360677      -372.616815100      -372.195523501         6.554278000
       213          213.000000         0.489055407      1083.728412823      -372.686176186      -372.197120779         6.279509000
       214          214.000000         0.596782470      1322.447538484      -372.796446683      -372.199664213         6.102619000
       215          215.000000         0.696807075      1544.098307295      -372.899734817      -372.202927742         6.590082000
       216          216.000000         0.754115818      1671.092328879      -372.959881525      -372.205765707         6.537309000
       217          217.000000         0.760251017      1684.687700409      -372.962797112      -372.202546095         6.546097000
       218          218.000000         0.736065015      1631.092427714      -372.938103563      -372.202038548         6.834609000
       219          219.000000         0.698355691      1547.529982943      -372.897918584      -372.199562892         6.571475000
       220          220.000000         0.666187580      1476.246656763      -372.865313194      -372.199125614         6.560179000
       221          221.000000         0.655976624      1453.619561291      -372.854826864      -372.198850240         6.033306000
       222          222.000000         0.670283085      1485.322141372      -372.870377122      -372.200094037         6.567484000
       223          223.000000         0.697723712      1546.129540240      -372.899445703      -372.201721991         5.543220000
       224          224.000000         0.721051975      1597.824095966      -372.924113713      -372.203061738         5.867363000
       225          225.000000         0.729258410      1616.009245675      -372.932446001      -372.203187592         5.595167000
       226          226.000000         0.726673211      1610.280543536      -372.928035502      -372.201362290         5.556639000
       227          227.000000         0.729461806      1616.459965381      -372.930455284      -372.200993477         5.574118000