#     Step Nr.          Time[fs]        Kin.[a.u.]          Temp[K]            Pot.[a.u.]        Cons Qty[a.u.]        UsedTime[s]
         0            0.000000         0.042419492        94.000000000      -372.197193263      -372.154773772         0.000000000
         1            0.500000         0.069422163       153.836905731      -372.250013673      -372.180854208        19.582779000
         2            1.000000         0.136757963       303.050508526      -372.314453696      -372.177075511         5.130992000
         3            1.500000         0.236160143       523.322007365      -372.414528644      -372.176582401         4.200690000
         4            2.000000         0.358794032       795.074098454      -372.542922996      -372.180915731         3.876928000
         5            2.500000         0.496943860      1101.208928900      -372.688620151      -372.185532711         3.853220000
         6            3.000000         0.647124334      1434.003219838      -372.843445744      -372.187708197         3.865193000
         7            3.500000         0.800147759      1773.097381529      -373.002533034      -372.189583443         3.374931000
         8            4.000000         0.941305383      2085.897375041      -373.154682789      -372.192444546         3.869477000
         9            4.500000         1.060495437      2350.018058069      -373.284562103      -372.197467648         3.892079000
        10            5.000000         1.142333766      2531.368720978      -373.374800252      -372.203087367         3.888128000
        11            5.500000         1.167312995      2586.721754653      -373.411883508      -372.207801944         3.910172000
        12            6.000000         1.137686166      2521.069813057      -373.390605005      -372.210988699         3.464118000
        13            6.500000         1.055019194      2337.882908571      -373.315488203      -372.213533269         3.891789000
        14            7.000000         0.931693491      2064.597783046      -373.199965687      -372.217331616         3.412155000
        15            7.500000         0.784602210      1738.649028024      -373.058153228      -372.219586560         3.881286000
        16            8.000000         0.632783097      1402.223577092      -372.908306187      -372.219330436         3.422463000
        17            8.500000         0.496251633      1099.674979398      -372.770010106      -372.217827220         3.889239000
        18            9.000000         0.385993378       855.346827348      -372.661615424      -372.216916827         3.399537000
        19            9.500000         0.319980527       709.064830428      -372.595438926      -372.216917322         3.898987000
        20           10.000000         0.302460385       670.240852512      -372.578102900      -372.217046645         3.383178000
        21           10.500000         0.334926062       742.183574638      -372.611283434      -372.216656876         3.947075000
        22           11.000000         0.413604311       916.531618878      -372.692574394      -372.216695138         3.392321000
        23           11.500000         0.529574149      1173.516424736      -372.813576529      -372.217777447         3.361001000
        24           12.000000         0.669911977      1484.499780079      -372.958889081      -372.219183500         3.395121000
        25           12.500000         0.813425085      1802.519438026      -373.109273384      -372.221177224         3.411372000
        26           13.000000         0.936266252      2074.730850545      -373.240165107      -372.222521369         3.394704000
        27           13.500000         1.018902358      2257.849356802      -373.326399669      -372.221644805         3.428824000
        28           14.000000         1.036021769      2295.785328021      -373.346382002      -372.217549113         3.594123000
        29           14.500000         0.978473152      2168.259753827      -373.291096597      -372.212779375         3.521839000
        30           15.000000         0.850812596      1885.368756640      -373.164466009      -372.208653631         3.413589000
        31           15.500000         0.673914842      1493.369977962      -372.986344517      -372.204791992         3.475675000
        32           16.000000         0.479753230      1063.115138929      -372.793245001      -372.201368173         3.417056000
        33           16.500000         0.316733596       701.869752793      -372.630610844      -372.198467010         3.354656000
        34           17.000000         0.226548324       502.022577121      -372.540760434      -372.196317287         3.593844000
        35           17.500000         0.234703216       520.093512337      -372.548929118      -372.195229353         3.361281000
        36           18.000000         0.338923318       751.041343747      -372.656237378      -372.196242412         3.859154000
        37           18.500000         0.513750179      1138.451100360      -372.837482904      -372.198348662         3.396518000
        38           19.000000         0.723155243      1602.484857799      -373.053868021      -372.201156801         3.866698000
        39           19.500000         0.927560375      2055.438953952      -373.263452386      -372.203838148         3.344451000
        40           20.000000         1.087499561      2409.858182585      -373.430978535      -372.204859329         3.643310000
        41           20.500000         1.187887693      2632.314512061      -373.536872780      -372.205787324         3.392284000
        42           21.000000         1.217893824      2698.806970752      -373.571605914      -372.205418847         3.467057000
        43           21.500000         1.178617302      2611.771674904      -373.539678308      -372.206208027         3.400027000
        44           22.000000         1.081862236      2397.366081281      -373.448973824      -372.206388972         3.353477000
        45           22.500000         0.938796177      2080.337068501      -373.314019023      -372.206445362         3.373870000
        46           23.000000         0.774801448      1716.930907296      -373.150940293      -372.206122470         3.401997000
        47           23.500000         0.595726688      1320.107965885      -372.976674217      -372.205502657         3.416983000
        48           24.000000         0.425339697       942.536794370      -372.808948099      -372.206166560         3.399278000
        49           24.500000         0.275337870       610.138378469      -372.658277569      -372.204721614         3.381129000
        50           25.000000         0.155450309       344.472046236      -372.539352240      -372.205017505         3.398980000
        51           25.500000         0.074365733       164.791670534      -372.458971516      -372.204903647         3.374044000
        52           26.000000         0.037670728        83.476918604      -372.422288372      -372.204677682         3.388146000
        53           26.500000         0.046701411       103.488573085      -372.431232583      -372.204517816         3.371121000
        54           27.000000         0.100241147       222.130615900      -372.484276148      -372.204005242         3.361476000
        55           27.500000         0.192319571       426.172945118      -372.578149532      -372.204339596         3.417713000
        56           28.000000         0.317027338       702.520674073      -372.703501212      -372.203545616         3.356477000
        57           28.500000         0.464540369      1029.404009791      -372.852639498      -372.203402166         3.394488000
        58           29.000000         0.623240760      1381.078115414      -373.012510846      -372.202968289         3.371662000
        59           29.500000         0.778741410      1725.661715376      -373.169980998      -372.202550137         3.340144000
        60           30.000000         0.914747352      2027.045775275      -373.311989266      -372.203466193         3.385894000
        61           30.500000         1.021018025      2262.537596239      -373.421876847      -372.203238159         3.417829000
        62           31.000000         1.082008179      2397.689485040      -373.488287809      -372.202958515         3.378036000
        63           31.500000         1.092756506      2421.507375029      -373.501341507      -372.202271463         3.401849000
        64           32.000000         1.044240254      2313.997181735      -373.456615987      -372.201617026         3.384247000
        65           32.500000         0.940156202      2083.350832104      -373.355377525      -372.200506669         3.863451000
        66           33.000000         0.790414327      1751.528462047      -373.209012590      -372.199052920         3.325369000
        67           33.500000         0.619010321      1371.703622705      -373.039602335      -372.197497040         3.886520000
        68           34.000000         0.457216195      1013.173916638      -372.877052694      -372.195825938         3.874089000
        69           34.500000         0.334670266       741.616740330      -372.755396060      -372.194859575         3.615308000
        70           35.000000         0.280850063       622.353190226      -372.702568656      -372.195107487         3.953583000
        71           35.500000         0.305709669       677.441143586      -372.730841199      -372.196502073         3.348388000
        72           36.000000         0.403406085       893.932733852      -372.832094670      -372.198599114         3.361546000
        73           36.500000         0.548802700      1216.126171482      -372.981715970      -372.202164443         3.422868000
        74           37.000000         0.701722541      1554.990794141      -373.141517285      -372.204885025         3.391537000
        75           37.500000         0.829215244      1837.509836208      -373.275752971      -372.206827518         3.389080000
        76           38.000000         0.906827889      2009.496543786      -373.358278378      -372.208449536         3.393348000
        77           38.500000         0.918910194      2036.270476369      -373.375378830      -372.208965990         3.390647000
        78           39.000000         0.870189514      1928.307280500      -373.328417297      -372.208215813         3.430104000
        79           39.500000         0.769839914      1705.936334820      -373.231797122      -372.207974154         3.365149000
        80           40.000000         0.639519347      1417.150852720      -373.105308581      -372.208640982         3.399933000
        81           40.500000         0.501189130      1110.616287022      -372.969213156      -372.208670948         3.372626000
        82           41.000000         0.373252006       827.112425764      -372.843957781      -372.208341130         3.390537000
        83           41.500000         0.274249145       607.725805268      -372.746362668      -372.207732758         3.374349000
        84           42.000000         0.215369628       477.251006397      -372.688386546      -372.206890665         3.413680000
        85           42.500000         0.204228305       452.562252771      -372.676082390      -372.205633627         3.441806000
        86           43.000000         0.239557617       530.850681358      -372.712316137      -372.205499518         3.421318000
        87           43.500000         0.318673739       706.169036879      -372.792359248      -372.205367553         3.466350000
        88           44.000000         0.431491549       956.169066332      -372.907097799      -372.204669513         3.440257000
        89           44.500000         0.568796994      1260.432776151      -373.045659576      -372.204777246         3.937386000
        90           45.000000         0.714902070      1584.196136550      -373.191730989      -372.204698010         3.479689000
        91           45.500000         0.851146229      1886.108075400      -373.328654503      -372.205600641         3.926675000
        92           46.000000         0.957994177      2122.879114932      -373.435958599      -372.204476117         3.426613000
        93           46.500000         1.017204831      2254.087699832      -373.501523189      -372.203687386         3.966427000
        94           47.000000         1.028387471      2278.868011221      -373.515235793      -372.201976274         3.445961000
        95           47.500000         0.990969295      2195.950737967      -373.475579451      -372.199725893         3.958235000
        96           48.000000         0.901968357      1998.728001764      -373.388332278      -372.197387688         3.458190000
        97           48.500000         0.776341334      1720.343237023      -373.267711894      -372.196978186         3.432261000
        98           49.000000         0.631024361      1398.326282995      -373.127188750      -372.195956462         3.421321000
        99           49.500000         0.485444950      1075.727775906      -372.982570422      -372.194063282         3.449921000
       100           50.000000         0.349891749       775.346973682      -372.847574352      -372.192363177         4.001724000
       101           50.500000         0.233949944       518.424289285      -372.731550477      -372.190730576         3.435120000
       102           51.000000         0.146075675       323.698210091      -372.642434438      -372.190177922         4.353237000
       103           51.500000         0.088492838       196.096805935      -372.582415168      -372.188840180         4.220463000
       104           52.000000         0.063277995       140.221659925      -372.556280800      -372.188621372         5.149245000
       105           52.500000         0.071053888       157.452746330      -372.564199639      -372.188938936         4.087163000
       106           53.000000         0.110657479       245.212817104      -372.603167062      -372.188275842         3.744867000
       107           53.500000         0.178434997       395.405252006      -372.672216339      -372.188759835         3.971306000
       108           54.000000         0.269905537       598.100532199      -372.766820077      -372.190468350         3.682162000
       109           54.500000         0.380148568       842.394949456      -372.879645566      -372.191192319         3.980835000
       110           55.000000         0.502482272      1113.481843140      -373.006455131      -372.192810652         3.446739000
       111           55.500000         0.628547856      1392.838441033      -373.136192662      -372.193360273         3.449751000
       112           56.000000         0.748258638      1658.113038307      -373.260603498      -372.195470459         3.474896000
       113           56.500000         0.847526184      1878.086192529      -373.364172308      -372.196502295         3.433788000
       114           57.000000         0.912274466      2021.565952995      -373.434688860      -372.197384669         3.986072000
       115           57.500000         0.936614997      2075.503655419      -373.463883588      -372.198836119         3.441767000
       116           58.000000         0.916605261      2031.162830883      -373.447789495      -372.199194082         3.442199000
       117           58.500000         0.856754466      1898.535719229      -373.390149420      -372.199128582         3.963635000
       118           59.000000         0.762812768      1690.364444180      -373.299719360      -372.198950103         3.548200000
       119           59.500000         0.650604332      1441.714763509      -373.189988796      -372.199067915         3.452190000
       120           60.000000         0.531809705      1178.470332666      -373.074766599      -372.198811516         3.946200000
       121           60.500000         0.422286847       935.771791632      -372.969296029      -372.198841487         3.450226000
       122           61.000000         0.338714499       750.578607851      -372.885963934      -372.199245768         3.978034000
       123           61.500000         0.284582939       630.625104573      -372.833575380      -372.199592799         3.446571000
       124           62.000000         0.267661844       593.128593191      -372.818447494      -372.200500004         3.443296000
       125           62.500000         0.287530467       637.156715802      -372.840855297      -372.200913151         3.445055000
       126           63.000000         0.345491370       765.595899458      -372.898412621      -372.201380962         3.484868000
       127           63.500000         0.429093448       950.854964355      -372.984142387      -372.202206582         3.435238000
       128           64.000000         0.528661378      1171.493758157      -373.086275087      -372.203031529         3.427720000
       129           64.500000         0.630124170      1396.331494949      -373.189930742      -372.203778781         3.377815000
       130           65.000000         0.715797246      1586.179811875      -373.278498692      -372.204406980         3.352672000
       131           65.500000         0.770458363      1707.306794784      -373.335010417      -372.204707619         3.367749000
       132           66.000000         0.780407017      1729.352639005      -373.346747544      -372.205069517         3.426903000
       133           66.500000         0.738155420      1635.724685662      -373.305934263      -372.203934409         3.434015000
       134           67.000000         0.649601171      1439.491795759      -373.218764028      -372.203590372         3.394624000
       135           67.500000         0.530211366      1174.928472325      -373.097967148      -372.201288940         3.364269000
       136           68.000000         0.402747847       892.474102694      -372.971257119      -372.199339061         3.384055000
       137           68.500000         0.300381247       665.633560540      -372.867815771      -372.196978252         3.390028000
       138           69.000000         0.248392259       550.427916305      -372.814732046      -372.195213190         3.497913000
       139           69.500000         0.260500884       577.260174200      -372.827777904      -372.194598265         3.440775000
       140           70.000000         0.337416123       747.701456777      -372.906096942      -372.194817793         3.936426000
       141           70.500000         0.464344673      1028.970354655      -373.034783823      -372.196073361         3.403249000
       142           71.000000         0.613754734      1360.057439535      -373.187047168      -372.197125533         3.900844000
       143           71.500000         0.757465032      1678.514061771      -373.335437604      -372.198016969         3.425998000
       144           72.000000         0.873656305      1935.989557880      -373.455574336      -372.197883672         3.359032000
       145           72.500000         0.948812218      2102.532240129      -373.532706327      -372.197723635         3.409024000
       146           73.000000         0.974363361      2159.152611247      -373.559443939      -372.197583488         3.372910000
       147           73.500000         0.943798845      2091.422792582      -373.536397121      -372.197927330         3.382709000
       148           74.000000         0.869154387      1926.013477894      -373.467860519      -372.197113428         3.445093000
       149           74.500000         0.764028797      1693.059117783      -373.365167068      -372.196532044         3.422569000
       150           75.000000         0.635149011      1407.466352003      -373.239422785      -372.195515698         3.390296000
       151           75.500000         0.498376953      1104.384609457      -373.104991994      -372.195611734         3.401778000
       152           76.000000         0.365293534       809.476751236      -372.972338804      -372.195214188         3.399278000
       153           76.500000         0.245491076       543.999003471      -372.853138467      -372.194995413         3.365063000
       154           77.000000         0.148673339       329.454534997      -372.756595706      -372.194913528         3.406012000
       155           77.500000         0.081930256       181.554370412      -372.689927211      -372.195196095         3.406491000
       156           78.000000         0.048969621       108.514841428      -372.657699300      -372.195775839         3.384041000
       157           78.500000         0.052955176       117.346681090      -372.660974626      -372.195673553         3.369617000
       158           79.000000         0.091654799       203.103592152      -372.700144300      -372.195716834         3.410597000
       159           79.500000         0.161628702       358.163133882      -372.771758567      -372.195759626         3.381625000
       160           80.000000         0.260539175       577.345026354      -372.869438712      -372.194665834         3.378915000
       161           80.500000         0.380485869       843.142394173      -372.988454457      -372.194716295         3.384604000
       162           81.000000         0.506972727      1123.432522572      -373.118566370      -372.195409600         3.410899000
       163           81.500000         0.631902498      1400.272202784      -373.248238441      -372.196085550         3.391756000
       164           82.000000         0.747772923      1657.036712244      -373.366238271      -372.196696211         3.420486000
       165           82.500000         0.838600985      1858.308287119      -373.461021003      -372.197204457         3.402563000
       166           83.000000         0.894447214      1982.061432509      -373.522414821      -372.197895452         3.360152000
       167           83.500000         0.910758712      2018.207098050      -373.541364366      -372.197740749         3.410162000
       168           84.000000         0.878880216      1947.565548272      -373.515028741      -372.198024026         3.390469000
       169           84.500000         0.803973091      1781.574173668      -373.443139358      -372.197202577         3.400617000
       170           85.000000         0.691448694      1532.224336344      -373.334700004      -372.196173880         3.803474000
       171           85.500000         0.561133899      1243.451645787      -373.205313499      -372.194924284         3.466962000
       172           86.000000         0.431269134       955.676202068      -373.076566985      -372.193636177         3.664841000
       173           86.500000         0.325930421       722.249570558      -372.972328510      -372.192993440         7.933219000
       174           87.000000         0.265732179       588.852527393      -372.912789293      -372.192803496         4.001198000
       175           87.500000         0.262301704       581.250724139      -372.909010960      -372.193191107         3.401497000
       176           88.000000         0.307871452       682.231573630      -372.960308586      -372.195017998         3.390848000
       177           88.500000         0.397096619       879.951192796      -373.050857208      -372.196557179         3.390428000
       178           89.000000         0.501946983      1112.295661161      -373.159304897      -372.198849058         3.407867000
       179           89.500000         0.596883349      1322.671082839      -373.259660256      -372.200714775         3.360688000
       180           90.000000         0.664753556      1473.068913118      -373.330019245      -372.200778148         3.410747000
       181           90.500000         0.690455731      1530.023968402      -373.360141477      -372.201212748         3.390181000
       182           91.000000         0.673847886      1493.221606569      -373.346223618      -372.200804738         3.463707000
       183           91.500000         0.620012320      1373.924013911      -373.295232426      -372.200803292         3.408241000
       184           92.000000         0.540262316      1197.201000435      -373.218135927      -372.200481927         3.403008000
       185           92.500000         0.449414176       995.884933815      -373.129292716      -372.199694581         3.458067000
       186           93.000000         0.364257791       807.181583362      -373.044650037      -372.199779661         3.372457000
       187           93.500000         0.294225593       651.992863841      -372.975863541      -372.199796255         3.376168000
       188           94.000000         0.251044785       556.305815549      -372.932308696      -372.199721428         3.363264000
       189           94.500000         0.237987453       527.371257194      -372.919874184      -372.199575700         3.355763000
       190           95.000000         0.258269454       572.315409741      -372.940173727      -372.199206117         3.366301000
       191           95.500000         0.308933413       684.584839441      -372.992028829      -372.199634242         3.408629000
       192           96.000000         0.383653631       850.162037174      -373.068449212      -372.199733158         3.365309000
       193           96.500000         0.474188043      1050.782892716      -373.161647191      -372.200452036         3.379059000
       194           97.000000         0.566364213      1255.041824176      -373.259456120      -372.200749071         3.410297000
       195           97.500000         0.654102902      1449.467464042      -373.350421515      -372.200938670         3.387444000
       196           98.000000         0.723498886      1603.246356958      -373.423611900      -372.201249859         3.440158000
       197           98.500000         0.765646754      1696.644450251      -373.469082007      -372.201106764         3.375671000
       198           99.000000         0.774150326      1715.488045598      -373.480849323      -372.200473613         3.409929000
       199           99.500000         0.747719834      1656.919069481      -373.457901598      -372.199833929         3.385662000
       200          100.000000         0.689953734      1528.911559842      -373.403149198      -372.199049310         3.392221000
       201          100.500000         0.604505334      1339.561116130      -373.322917881      -372.197416107         3.398638000
       202          101.000000         0.507113030      1123.743427445      -373.228809060      -372.197010300         3.409441000
       203          101.500000         0.405492553       898.556268738      -373.127969511      -372.195161192         3.367255000
       204          102.000000         0.309209255       685.196095812      -373.031210639      -372.193613970         3.902232000
       205          102.500000         0.222474513       492.995164424      -372.945842307      -372.192390861         3.390590000
       206          103.000000         0.155348786       344.247074154      -372.878887588      -372.192656602         3.885511000
       207          103.500000         0.108642786       240.748332822      -372.832472192      -372.192230878         3.903343000
       208          104.000000         0.087547002       194.000869106      -372.810442767      -372.191713026         3.605417000
       209          104.500000         0.092417693       204.794135765      -372.816081351      -372.192095448         3.881266000
       210          105.000000         0.125597521       278.319389272      -372.849813271      -372.192639760         3.404387000
       211          105.500000         0.185613464       411.312463803      -372.911189586      -372.193642238         3.889076000
       212          106.000000         0.269546493       597.304904369      -372.996974696      -372.194975860         3.400183000
       213          106.500000         0.369716368       819.277585274      -373.100647508      -372.196143941         3.392813000
       214          107.000000         0.479672049      1062.935245363      -373.213554634      -372.197398044         3.392560000
       215          107.500000         0.586048189      1298.660774664      -373.325820591      -372.199337951         3.393837000
       216          108.000000         0.680136925      1507.157881858      -373.423725729      -372.200290063         3.388176000
       217          108.500000         0.748188198      1657.956946672      -373.496717206      -372.201230602         3.437580000
       218          109.000000         0.783002778      1735.104748269      -373.535557860      -372.202183386         3.387927000
       219          109.500000         0.778535742      1725.205964220      -373.535438105      -372.202860372         3.397754000
       220          110.000000         0.736631984      1632.348808686      -373.496956684      -372.202911616         3.380847000
       221          110.500000         0.658724750      1459.709305473      -373.425797596      -372.202089114         3.403370000
       222          111.000000         0.565980358      1254.191216628      -373.333953213      -372.202426080         3.398280000
       223          111.500000         0.462372788      1024.600732657      -373.231621052      -372.202317260         3.388953000
       224          112.000000         0.361782313       801.696017838      -373.130882426      -372.200937128         3.413234000
       225          112.500000         0.275381110       610.234195738      -373.046635472      -372.201438159         3.362755000
       226          113.000000         0.213431472       472.956125663      -372.985370783      -372.201280308         3.371400000
       227          113.500000         0.181794366       402.849486135      -372.954426771      -372.201713284         3.391631000